# Forces        
# CofR          : (0.00000000e+00 0.00000000e+00 0.00000000e+00)
# Time          forces(pressure viscous)	moments(pressure viscous)
0               	((0.00000000e+00 0.00000000e+00 0.00000000e+00) (5.22508225e+00 2.42861287e-16 1.50463277e-34)) ((0.00000000e+00 0.00000000e+00 0.00000000e+00) (4.50052624e-26 -3.22643007e-21 -1.20042865e-15))
0.05            	((1.66926292e+02 -7.94910873e-06 -1.43547211e-20) (5.84405635e+00 3.57301795e-08 -1.66532161e-21)) ((-9.29151207e-20 -7.14624121e-19 3.13233814e-13) (-7.06805272e-19 -1.64326220e-21 -4.69241502e-08))
0.1             	((-7.39389552e+01 1.78224109e-05 1.54452621e-19) (4.50182630e+00 7.76565158e-08 -1.56908322e-21)) ((1.36504981e-18 2.95215335e-19 -4.15594642e-13) (-1.11665314e-18 -1.46664836e-21 -2.39590108e-08))
0.15            	((6.77030051e+00 -1.39136577e-05 9.28943045e-20) (3.45125543e+00 -7.37307099e-08 -1.11178129e-21)) ((1.03015457e-18 -3.96567533e-20 6.55714307e-13) (-8.77863875e-19 -8.78406556e-22 6.98099094e-08))
0.2             	((4.33438159e+00 6.36584157e-06 1.11943166e-19) (2.78045545e+00 -4.42979696e-08 3.56363322e-22)) ((6.17803099e-19 -2.42121268e-20 -6.65690159e-13) (-2.84061336e-19 -5.64668818e-22 7.24991387e-08))
0.25            	((4.63082464e+00 -2.72711985e-06 1.08032830e-19) (2.34844380e+00 -4.25022761e-09 6.40047481e-22)) ((4.78359452e-19 -2.40823372e-20 6.30233414e-13) (-5.06970705e-20 -3.79232244e-22 2.12409078e-08))
0.3             	((4.51595653e+00 8.24476854e-07 9.73716881e-20) (2.04724781e+00 2.37796636e-08 2.72889013e-22)) ((5.13649816e-19 -2.36015634e-20 9.55359923e-14) (-4.74554745e-20 -3.11444824e-22 -3.73028308e-09))
0.35            	((4.36420587e+00 -1.07941473e-06 8.86109388e-20) (1.82859777e+00 3.69470599e-08 1.43819696e-22)) ((6.04339531e-19 -2.33083892e-20 -4.26210716e-15) (2.19875413e-19 -7.68579368e-23 -2.45626796e-08))
0.4             	((4.34133632e+00 -1.44955185e-06 8.46542459e-20) (1.66259855e+00 3.29827205e-08 4.91770000e-23)) ((6.98145564e-19 -2.37425108e-20 1.08131169e-13) (5.34401854e-19 1.82376336e-22 -3.00889325e-08))
0.45            	((4.41851158e+00 -1.92098245e-06 8.31358172e-20) (1.53524692e+00 2.29678402e-08 1.52914722e-22)) ((7.82810112e-19 -2.45347081e-20 1.89315360e-13) (5.03379056e-19 2.97819705e-22 -2.75022531e-08))
0.5             	((4.55318672e+00 1.53159516e-06 8.15527838e-20) (1.43452869e+00 2.98661444e-08 2.06151593e-22)) ((8.64177888e-19 -2.54417129e-20 8.68352699e-14) (3.92542505e-19 3.35261504e-22 -2.03684093e-08))
0.55            	((4.72588236e+00 -6.39639093e-07 7.94865203e-20) (1.35198643e+00 2.56053906e-08 1.73579416e-22)) ((9.42550203e-19 -2.64249468e-20 1.01592346e-13) (3.30749511e-19 3.51594625e-22 -1.55237400e-08))
0.6             	((4.91826690e+00 -6.97843646e-08 7.73730182e-20) (1.28357635e+00 2.24733356e-08 1.14933037e-22)) ((1.01138525e-18 -2.74026143e-20 8.35572930e-14) (2.88473053e-19 3.70806376e-22 -1.02533908e-08))
0.65            	((5.13183343e+00 -1.32819901e-07 7.53591681e-20) (1.22521907e+00 1.92993576e-08 4.58759835e-23)) ((1.06831182e-18 -2.84023237e-20 7.14814492e-14) (2.51722067e-19 3.91252788e-22 -5.21208757e-09))
0.7             	((5.35573331e+00 -1.47566109e-07 7.33666631e-20) (1.17545480e+00 1.57011478e-08 -2.70807606e-23)) ((1.11641908e-18 -2.93846446e-20 6.37861075e-14) (2.28156370e-19 4.12811151e-22 -1.89740378e-09))
0.75            	((5.57369862e+00 -1.66389782e-07 7.14057109e-20) (1.13299991e+00 1.28125436e-08 -9.27529565e-23)) ((1.15985383e-18 -3.02915235e-20 6.36767115e-14) (1.86882578e-19 4.34723083e-22 2.35804709e-10))
0.8             	((5.80359888e+00 -1.62021960e-07 6.96660545e-20) (1.09650189e+00 1.23988123e-08 -1.03200935e-22)) ((1.20325216e-18 -3.11976767e-20 6.11906359e-14) (1.13544545e-19 4.53772249e-22 1.02379703e-09))
0.85            	((6.02081274e+00 -1.97792762e-07 6.80462231e-20) (1.06571444e+00 1.24086362e-08 -1.10021795e-22)) ((1.24384631e-18 -3.20394858e-20 6.52698381e-14) (2.41871764e-20 4.73291220e-22 1.12400233e-09))
0.9             	((6.23902985e+00 -1.13450170e-07 6.64846588e-20) (1.04077402e+00 1.13725123e-08 -1.22525352e-22)) ((1.28671390e-18 -3.28357436e-20 6.86213239e-14) (-4.14248959e-20 4.91918599e-22 8.42278684e-10))
0.95            	((6.43381327e+00 -2.80649990e-07 6.49097657e-20) (1.02026959e+00 1.01133107e-08 -1.42846312e-22)) ((1.32794037e-18 -3.35477889e-20 6.72890563e-14) (-8.41202006e-20 5.10342001e-22 2.03847494e-10))
1               	((6.62278657e+00 -2.40689850e-07 6.34173610e-20) (1.00273881e+00 9.73232194e-09 -1.68818591e-22)) ((1.36987161e-18 -3.42227261e-20 6.99180297e-14) (-7.72675217e-20 5.27954555e-22 4.09004358e-10))
1.05            	((6.78902144e+00 -2.31289619e-07 6.18870695e-20) (9.86922163e-01 1.00850394e-08 -2.04479908e-22)) ((1.40835829e-18 -3.48029563e-20 7.47856638e-14) (-9.37188629e-20 5.45193564e-22 4.13697188e-10))
1.1             	((6.94707433e+00 -3.19087308e-07 6.04198874e-20) (9.73075528e-01 1.01716190e-08 -2.49297031e-22)) ((1.44252935e-18 -3.53450297e-20 7.74137698e-14) (-1.29605613e-19 5.61958436e-22 5.60822062e-10))
1.15            	((7.07722751e+00 -3.47477662e-07 5.89562804e-20) (9.60784954e-01 1.00033451e-08 -3.11836048e-22)) ((1.47167602e-18 -3.57597074e-20 8.53006901e-14) (-1.76205689e-19 5.77907767e-22 3.78401269e-10))
1.2             	((7.18906984e+00 -3.80401896e-07 5.76038977e-20) (9.50034945e-01 1.01208699e-08 -3.84978399e-22)) ((1.49684434e-18 -3.61004214e-20 9.19229970e-14) (-2.25438525e-19 5.93000569e-22 -1.04138878e-10))
1.25            	((7.28677559e+00 -4.08201244e-07 5.63816974e-20) (9.40654648e-01 1.09877233e-08 -4.50540912e-22)) ((1.51654221e-18 -3.64071754e-20 9.26949489e-14) (-2.68722995e-19 6.07769325e-22 4.23988906e-10))
1.3             	((7.36026783e+00 -4.77562134e-07 5.52164716e-20) (9.32190484e-01 1.09072564e-08 -5.09783438e-22)) ((1.53007404e-18 -3.66151565e-20 9.63656238e-14) (-3.10482815e-19 6.21843889e-22 1.11983174e-09))
1.35            	((7.39929576e+00 -5.66873647e-07 5.40605353e-20) (9.24237855e-01 1.02373829e-08 -5.65416923e-22)) ((1.53702285e-18 -3.66877347e-20 1.05962114e-13) (-3.54300512e-19 6.35396163e-22 1.81256839e-09))
1.4             	((7.41519401e+00 -5.98898087e-07 5.29685388e-20) (9.16679439e-01 8.54208729e-09 -6.18315641e-22)) ((1.54154459e-18 -3.67006727e-20 1.11158478e-13) (-3.96326588e-19 6.47865136e-22 1.82900113e-09))
1.45            	((7.41734193e+00 -5.88837337e-07 5.19823935e-20) (9.09407755e-01 6.53750033e-09 -6.50165041e-22)) ((1.54058933e-18 -3.66833677e-20 1.23638946e-13) (-4.37706834e-19 6.59685948e-22 8.67069500e-10))
1.5             	((7.40295433e+00 -7.60811656e-07 5.10873147e-20) (9.02774705e-01 4.26958147e-09 -6.59649663e-22)) ((1.53627867e-18 -3.66232762e-20 1.29441596e-13) (-4.66084087e-19 6.70897991e-22 -6.91541491e-10))
1.55            	((7.36145949e+00 -6.33987984e-07 5.01778002e-20) (8.96359617e-01 4.12407626e-09 -6.60456371e-22)) ((1.52524581e-18 -3.64566270e-20 6.94565933e-14) (-4.83318207e-19 6.80372780e-22 -2.47669177e-10))
1.6             	((7.30618664e+00 -7.90222301e-07 4.93222841e-20) (8.90180920e-01 3.76916894e-09 -6.62406255e-22)) ((1.51174298e-18 -3.62379887e-20 8.01025912e-14) (-5.01612028e-19 6.88613303e-22 8.36696185e-10))
1.65            	((7.25453094e+00 -7.18224516e-07 4.86024470e-20) (8.84333242e-01 3.80231304e-09 -6.64650383e-22)) ((1.49929337e-18 -3.60984211e-20 8.71724568e-14) (-5.22126573e-19 6.95611403e-22 2.34215222e-09))
1.7             	((7.18037182e+00 -7.98084299e-07 4.78026465e-20) (8.78425772e-01 2.41148235e-09 -6.68100971e-22)) ((1.48250727e-18 -3.58733189e-20 9.46291656e-14) (-5.37365988e-19 7.00714339e-22 2.47855905e-09))
1.75            	((7.09591518e+00 1.56375604e-06 4.70149363e-20) (8.72271899e-01 1.42072607e-08 -6.69360260e-22)) ((1.46401993e-18 -3.55644945e-20 6.74963557e-14) (-5.51243806e-19 7.03838570e-22 4.55719231e-09))
1.8             	((7.01899361e+00 -7.71574253e-07 4.63043267e-20) (8.66014041e-01 1.04489446e-08 -6.68034302e-22)) ((1.44655983e-18 -3.52812757e-20 7.78248993e-14) (-5.65260896e-19 7.05248690e-22 3.76548336e-09))
1.85            	((6.96244645e+00 -5.90861252e-08 4.56973565e-20) (8.59848534e-01 6.96342218e-09 -6.65397485e-22)) ((1.43259871e-18 -3.51844736e-20 8.12891421e-14) (-5.79966010e-19 7.06360000e-22 4.19765148e-09))
1.9             	((6.88554113e+00 -8.95991079e-08 4.49413009e-20) (8.53798921e-01 6.42815844e-09 -6.60421501e-22)) ((1.41764103e-18 -3.49595655e-20 8.71976102e-14) (-5.93726590e-19 7.05339214e-22 4.52463558e-09))
1.95            	((6.81295621e+00 -7.85419786e-08 4.42277632e-20) (8.47993876e-01 5.80537617e-09 -6.54926870e-22)) ((1.40378635e-18 -3.47523372e-20 9.03357250e-14) (-6.09477466e-19 7.03134062e-22 5.24436183e-09))
2               	((6.74343446e+00 -1.46074882e-07 4.35424563e-20) (8.42432164e-01 4.68326834e-09 -6.48893143e-22)) ((1.39068926e-18 -3.45316992e-20 9.14259987e-14) (-6.24411796e-19 6.99774855e-22 5.29871413e-09))
2.05            	((6.68550867e+00 -9.00494605e-08 4.28967276e-20) (8.37163965e-01 3.70451153e-09 -6.43009772e-22)) ((1.37934400e-18 -3.43648566e-20 9.42171688e-14) (-6.38037198e-19 6.95967297e-22 5.22265968e-09))
2.1             	((6.63449776e+00 -1.49092707e-07 4.22517959e-20) (8.32121345e-01 2.45909361e-09 -6.37161499e-22)) ((1.36922924e-18 -3.42196004e-20 9.96546595e-14) (-6.51374948e-19 6.91570983e-22 5.48274248e-09))
2.15            	((6.59556587e+00 -9.80356622e-08 4.16854394e-20) (8.27351894e-01 1.20157458e-09 -6.31384505e-22)) ((1.36131054e-18 -3.41200504e-20 1.04975056e-13) (-6.64727313e-19 6.86755953e-22 5.19030475e-09))
2.2             	((6.55299808e+00 -1.03417501e-07 4.10529899e-20) (8.22850361e-01 8.08580911e-11 -6.25618232e-22)) ((1.35428866e-18 -3.39873061e-20 1.03556053e-13) (-6.78052013e-19 6.81651222e-22 5.18254945e-09))
2.25            	((6.51680002e+00 -1.11549069e-07 4.04502333e-20) (8.18549830e-01 -1.31544244e-09 -6.20120193e-22)) ((1.34885486e-18 -3.38818534e-20 1.14185571e-13) (-6.90688908e-19 6.76638154e-22 4.88509690e-09))
2.3             	((6.47875074e+00 -5.25820512e-08 3.98510624e-20) (8.14392509e-01 -1.82594984e-09 -6.14969879e-22)) ((1.34312934e-18 -3.37528210e-20 1.08350828e-13) (-7.02941567e-19 6.71868304e-22 5.62144242e-09))
2.35            	((6.44697257e+00 -8.07569399e-08 3.93058857e-20) (8.10392191e-01 -2.40651303e-09 -6.10360663e-22)) ((1.33827008e-18 -3.36498973e-20 1.11053527e-13) (-7.14780603e-19 6.67586567e-22 6.11726478e-09))
2.4             	((6.41735384e+00 -2.76089676e-06 3.87593329e-20) (8.06507023e-01 -1.96451562e-08 -6.05970926e-22)) ((1.33396535e-18 -3.35531637e-20 1.73335304e-13) (-7.24000728e-19 6.63541305e-22 6.04539620e-09))
2.45            	((6.38873948e+00 4.26444249e-08 3.81933955e-20) (8.02710103e-01 -1.77078466e-08 -6.01687433e-22)) ((1.33072523e-18 -3.34457783e-20 1.55551787e-13) (-7.31246741e-19 6.59525946e-22 7.83190862e-09))
2.5             	((6.36005356e+00 -6.22598305e-07 3.76490315e-20) (7.98986799e-01 -1.56942188e-08 -5.96253240e-22)) ((1.32731061e-18 -3.33299068e-20 1.61154076e-13) (-7.37381957e-19 6.55849589e-22 7.55442611e-09))
2.55            	((6.33363356e+00 -8.10920488e-07 3.71632413e-20) (7.95336672e-01 -1.45242266e-08 -5.90179197e-22)) ((1.32386765e-18 -3.32246177e-20 1.53300983e-13) (-7.42823933e-19 6.52720355e-22 8.44629371e-09))
2.6             	((6.30847698e+00 -7.41240452e-07 3.66806222e-20) (7.91779509e-01 -1.41007439e-08 -5.84639468e-22)) ((1.32083697e-18 -3.31219655e-20 1.55856231e-13) (-7.48186480e-19 6.49846560e-22 9.40652196e-09))
2.65            	((6.28110664e+00 -6.65512349e-07 3.61832802e-20) (7.88286158e-01 -1.36686197e-08 -5.79601618e-22)) ((1.31774296e-18 -3.30040361e-20 1.54049516e-13) (-7.53198094e-19 6.47246459e-22 1.04070128e-08))
2.7             	((6.25289465e+00 -6.61221019e-07 3.57031371e-20) (7.84859324e-01 -1.44067238e-08 -5.75071763e-22)) ((1.31457684e-18 -3.28798055e-20 1.85480971e-13) (-7.58221943e-19 6.44986955e-22 1.05133188e-08))
2.75            	((6.22204203e+00 -8.03209754e-07 3.51846519e-20) (7.81488939e-01 -1.42450598e-08 -5.70969622e-22)) ((1.31133054e-18 -3.27468499e-20 1.90035487e-13) (-7.62973271e-19 6.43015653e-22 9.96385147e-09))
2.8             	((6.19844810e+00 -8.66574855e-07 3.48004070e-20) (7.78265106e-01 -1.51538156e-08 -5.67185052e-22)) ((1.30810270e-18 -3.26510685e-20 1.46309180e-13) (-7.68340390e-19 6.41304830e-22 9.93052888e-09))
2.85            	((6.17126673e+00 -6.53917064e-07 3.44065197e-20) (7.75130614e-01 -1.50803946e-08 -5.63447906e-22)) ((1.30417387e-18 -3.25337447e-20 1.90295696e-13) (-7.73709249e-19 6.39631964e-22 9.42413775e-09))
2.9             	((6.14225662e+00 -6.63653071e-07 3.39723371e-20) (7.72052800e-01 -1.47464799e-08 -5.59866879e-22)) ((1.30050952e-18 -3.24156465e-20 1.82157241e-13) (-7.78573057e-19 6.38129960e-22 9.05020599e-09))
2.95            	((6.11100054e+00 -8.69175187e-07 3.35383055e-20) (7.68991645e-01 -1.61590192e-08 -5.56238960e-22)) ((1.29664763e-18 -3.22835401e-20 1.90622691e-13) (-7.82932567e-19 6.36600706e-22 8.64623922e-09))
3               	((6.08082889e+00 -7.63681404e-07 3.31119435e-20) (7.65945310e-01 -1.71848495e-08 -5.52635696e-22)) ((1.29253807e-18 -3.21535026e-20 1.93674070e-13) (-7.87221124e-19 6.35115844e-22 8.30446496e-09))
3.05            	((6.05007277e+00 -6.55877712e-07 3.26615188e-20) (7.62905989e-01 -1.75140002e-08 -5.49077635e-22)) ((1.28852414e-18 -3.20224485e-20 1.93299370e-13) (-7.91445714e-19 6.33701528e-22 8.05936706e-09))
3.1             	((6.02302135e+00 -7.00654504e-07 3.22910353e-20) (7.59911935e-01 -1.79176051e-08 -5.45615041e-22)) ((1.28439947e-18 -3.19106900e-20 1.98498336e-13) (-7.95991739e-19 6.32387654e-22 8.11830790e-09))
3.15            	((5.99591583e+00 -7.13370431e-07 3.19106545e-20) (7.56970991e-01 -1.92752892e-08 -5.42089411e-22)) ((1.28058922e-18 -3.17991971e-20 2.00901362e-13) (-7.98748991e-19 6.31063782e-22 7.30406818e-09))
3.2             	((5.97120038e+00 -6.65666866e-07 3.15441419e-20) (7.54083035e-01 -2.01652390e-08 -5.38658474e-22)) ((1.27696170e-18 -3.17018882e-20 2.00442093e-13) (-8.01257578e-19 6.29752682e-22 7.00265072e-09))
3.25            	((5.94564509e+00 -7.54847775e-07 3.11717867e-20) (7.51245918e-01 -2.16084790e-08 -5.35278011e-22)) ((1.27327323e-18 -3.16022897e-20 1.91333928e-13) (-8.03832037e-19 6.28425351e-22 5.53034638e-09))
3.3             	((5.92137861e+00 -7.99525220e-07 3.08130497e-20) (7.48469725e-01 -2.31739195e-08 -5.31911370e-22)) ((1.26966528e-18 -3.15115971e-20 1.92044297e-13) (-8.06477986e-19 6.27025903e-22 4.04862322e-09))
3.35            	((5.89805678e+00 -7.74513849e-07 3.04557482e-20) (7.45761751e-01 -2.43172074e-08 -5.28549364e-22)) ((1.26631245e-18 -3.14298363e-20 1.80939465e-13) (-8.09190225e-19 6.25535598e-22 3.13180001e-09))
3.4             	((5.87840668e+00 -7.40587010e-07 3.01614083e-20) (7.43153208e-01 -2.47031871e-08 -5.25175740e-22)) ((1.26318242e-18 -3.13675089e-20 1.64473036e-13) (-8.11929181e-19 6.23917772e-22 2.73586775e-09))
3.45            	((5.85613846e+00 -7.16630228e-07 2.98088614e-20) (7.40623200e-01 -2.46111596e-08 -5.21732038e-22)) ((1.26020246e-18 -3.12965739e-20 1.54414675e-13) (-8.14689440e-19 6.22128812e-22 2.69544614e-09))
3.5             	((5.83372011e+00 -7.42051911e-07 2.94641976e-20) (7.38162474e-01 -2.45175403e-08 -5.18238206e-22)) ((1.25700334e-18 -3.12251025e-20 1.44443485e-13) (-8.17362043e-19 6.20205433e-22 2.82269163e-09))
3.55            	((5.81562797e+00 -6.96427080e-07 2.91907751e-20) (7.35794829e-01 -2.48249471e-08 -5.14686515e-22)) ((1.25409532e-18 -3.11744034e-20 1.44258303e-13) (-8.20039624e-19 6.18158762e-22 2.49191756e-09))
3.6             	((5.79493484e+00 -5.99671341e-07 2.88887848e-20) (7.33498083e-01 -2.54986212e-08 -5.10993574e-22)) ((1.25099420e-18 -3.11059569e-20 1.54732130e-13) (-8.22678831e-19 6.15923151e-22 1.48808150e-09))
3.65            	((5.77609525e+00 -6.67842027e-07 2.85826278e-20) (7.31270544e-01 -2.75238473e-08 -5.07352794e-22)) ((1.24826851e-18 -3.10512654e-20 1.69956063e-13) (-8.25327087e-19 6.13703020e-22 -3.47757635e-10))
3.7             	((5.75866068e+00 -6.49406349e-07 2.82802521e-20) (7.29117316e-01 -3.05773216e-08 -5.03726413e-22)) ((1.24571186e-18 -3.10052926e-20 1.87089493e-13) (-8.27914925e-19 6.11460097e-22 -2.66380308e-09))
3.75            	((5.74318826e+00 -6.30811536e-07 2.80226445e-20) (7.27050693e-01 -3.44797172e-08 -5.00130710e-22)) ((1.24320602e-18 -3.09696410e-20 2.19261675e-13) (-8.30462383e-19 6.09196897e-22 -5.80070805e-09))
3.8             	((5.72691079e+00 -6.20442193e-07 2.77562590e-20) (7.25061063e-01 -3.85738631e-08 -4.96579753e-22)) ((1.24062879e-18 -3.09311578e-20 2.40221471e-13) (-8.32944093e-19 6.06901228e-22 -9.04706180e-09))
3.85            	((5.71108242e+00 -6.30119867e-07 2.74894930e-20) (7.23165455e-01 -4.30321795e-08 -4.93069996e-22)) ((1.23801946e-18 -3.08955886e-20 2.77271262e-13) (-8.35447121e-19 6.04541379e-22 -1.24220257e-08))
3.9             	((5.69549696e+00 -6.15635492e-07 2.72275541e-20) (7.21357171e-01 -4.65496899e-08 -4.89631567e-22)) ((1.23539671e-18 -3.08636602e-20 2.84760496e-13) (-8.37887484e-19 6.02186767e-22 -1.49351917e-08))
3.95            	((5.68083635e+00 -6.07607215e-07 2.69793542e-20) (7.19628600e-01 -4.90084808e-08 -4.86185959e-22)) ((1.23277950e-18 -3.08382888e-20 2.94247265e-13) (-8.40237003e-19 5.99777950e-22 -1.63194016e-08))
4               	((5.66602165e+00 -5.85122079e-07 2.67328358e-20) (7.17965451e-01 -5.01057701e-08 -4.82645401e-22)) ((1.23023462e-18 -3.08149838e-20 2.94824278e-13) (-8.42390932e-19 5.97297595e-22 -1.64477309e-08))
4.05            	((5.65109164e+00 -5.79721983e-07 2.64881521e-20) (7.16353589e-01 -5.01282078e-08 -4.78987993e-22)) ((1.22761748e-18 -3.07927253e-20 2.91567118e-13) (-8.44321341e-19 5.94739448e-22 -1.58088061e-08))
4.1             	((5.63474359e+00 -4.09671820e-06 2.62232803e-20) (7.14779641e-01 -6.64545073e-08 -4.75159357e-22)) ((1.22497817e-18 -3.07649430e-20 4.98692233e-13) (-8.46065022e-19 5.92110365e-22 -1.70922787e-08))
4.15            	((5.62135263e+00 2.91458389e-06 2.60322256e-20) (7.13258376e-01 -4.47458302e-08 -4.71320597e-22)) ((1.22231393e-18 -3.07506600e-20 1.36738277e-13) (-8.47699654e-19 5.89386889e-22 -1.43279217e-08))
4.2             	((5.60650026e+00 -5.01529002e-06 2.58124493e-20) (7.11768983e-01 -6.01847775e-08 -4.67401601e-22)) ((1.21960159e-18 -3.07298032e-20 5.36836200e-13) (-8.49391219e-19 5.86639080e-22 -1.66140946e-08))
4.25            	((5.59015552e+00 -4.79961719e-07 2.55810710e-20) (7.10299494e-01 -5.59555740e-08 -4.63456137e-22)) ((1.21679105e-18 -3.07018355e-20 3.67772653e-13) (-8.51152680e-19 5.83816476e-22 -1.63557119e-08))
4.3             	((5.57564154e+00 -1.45519497e-06 2.53784924e-20) (7.08858495e-01 -5.25582060e-08 -4.59567072e-22)) ((1.21402263e-18 -3.06828974e-20 4.06142351e-13) (-8.52722098e-19 5.80991986e-22 -1.73346565e-08))
4.35            	((5.55936050e+00 -1.29279445e-06 2.51417898e-20) (7.07429444e-01 -4.91134961e-08 -4.55725760e-22)) ((1.21127131e-18 -3.06571771e-20 4.18423434e-13) (-8.54181833e-19 5.78137669e-22 -1.78468118e-08))
4.4             	((5.54471263e+00 -1.48244949e-06 2.49363885e-20) (7.06018474e-01 -4.64736687e-08 -4.51928481e-22)) ((1.20856258e-18 -3.06389709e-20 4.24370825e-13) (-8.55650339e-19 5.75271121e-22 -1.70026442e-08))
4.45            	((5.52996076e+00 -1.31005813e-06 2.47337222e-20) (7.04620195e-01 -4.38200800e-08 -4.48146755e-22)) ((1.20582546e-18 -3.06194610e-20 4.20198381e-13) (-8.57159201e-19 5.72366497e-22 -1.56765947e-08))
4.5             	((5.51639593e+00 -1.23780993e-06 2.45277859e-20) (7.03238378e-01 -4.13302260e-08 -4.44422077e-22)) ((1.20328525e-18 -3.06084838e-20 4.20632387e-13) (-8.58677704e-19 5.69475302e-22 -1.43178443e-08))
4.55            	((5.50378431e+00 -1.31342589e-06 2.43498316e-20) (7.01881626e-01 -3.94872204e-08 -4.40703514e-22)) ((1.20071422e-18 -3.06013262e-20 4.12238386e-13) (-8.60215345e-19 5.66551858e-22 -1.29027853e-08))
4.6             	((5.49192783e+00 -1.14309966e-06 2.41752164e-20) (7.00556752e-01 -3.69818668e-08 -4.36993710e-22)) ((1.19825843e-18 -3.05992759e-20 3.99025024e-13) (-8.61847508e-19 5.63598512e-22 -1.12609268e-08))
4.65            	((5.48044001e+00 -1.08674656e-06 2.39968990e-20) (6.99264807e-01 -3.42115208e-08 -4.33272478e-22)) ((1.19587642e-18 -3.06001198e-20 3.93134567e-13) (-8.63484891e-19 5.60601495e-22 -9.56846382e-09))
4.7             	((5.46891701e+00 -1.06682188e-06 2.38252419e-20) (6.98003128e-01 -3.15712892e-08 -4.29508249e-22)) ((1.19344464e-18 -3.06001722e-20 3.85651207e-13) (-8.65040923e-19 5.57538776e-22 -7.97482089e-09))
4.75            	((5.45654695e+00 -1.00997525e-06 2.36479913e-20) (6.96761416e-01 -2.92253427e-08 -4.25724385e-22)) ((1.19090433e-18 -3.05947023e-20 3.74585156e-13) (-8.66614270e-19 5.54421551e-22 -6.64149026e-09))
4.8             	((5.44195235e+00 -8.83264948e-07 2.34281534e-20) (6.95515706e-01 -2.68914787e-08 -4.21923433e-22)) ((1.18834340e-18 -3.05775523e-20 3.54739567e-13) (-8.68263097e-19 5.51253910e-22 -5.73758794e-09))
4.85            	((5.43193993e+00 -1.03133387e-06 2.32783941e-20) (6.94297074e-01 -2.55399678e-08 -4.18171022e-22)) ((1.18593759e-18 -3.05822442e-20 3.82162346e-13) (-8.69815780e-19 5.48126800e-22 -5.48977964e-09))
4.9             	((5.41994338e+00 -9.93517043e-07 2.30900036e-20) (6.93094182e-01 -2.55370313e-08 -4.14444265e-22)) ((1.18354925e-18 -3.05759106e-20 3.71633497e-13) (-8.71391976e-19 5.44978032e-22 -5.65604792e-09))
4.95            	((5.40795592e+00 -1.01436591e-06 2.29048194e-20) (6.91910267e-01 -2.61975850e-08 -4.10756895e-22)) ((1.18114169e-18 -3.05679469e-20 3.74416318e-13) (-8.72838202e-19 5.41834255e-22 -5.05109757e-09))
5               	((5.39599357e+00 -1.14336876e-06 2.27185043e-20) (6.90741789e-01 -2.72621065e-08 -4.07162401e-22)) ((1.17862907e-18 -3.05581292e-20 1.31705519e-13) (-8.74176140e-19 5.38692504e-22 -4.49470228e-09))
5.05            	((5.38716039e+00 -1.02748388e-06 2.25920731e-20) (6.89604055e-01 -2.80126146e-08 -4.03700301e-22)) ((1.17633073e-18 -3.05618523e-20 4.10187834e-13) (-8.75555455e-19 5.35674253e-22 -6.17212515e-09))
5.1             	((5.37722718e+00 -1.14202997e-06 2.24330203e-20) (6.88491375e-01 -3.00794353e-08 -4.00400036e-22)) ((1.17407194e-18 -3.05598732e-20 1.28229241e-13) (-8.76988493e-19 5.32630978e-22 -5.77640075e-09))
5.15            	((5.36771617e+00 -1.10143185e-06 2.22809622e-20) (6.87409788e-01 -3.11395498e-08 -3.97205711e-22)) ((1.17180225e-18 -3.05594261e-20 1.43079775e-13) (-8.78352281e-19 5.29668253e-22 -5.07612562e-09))
5.2             	((5.35926505e+00 -1.09446503e-06 2.21408403e-20) (6.86366645e-01 -3.19153802e-08 -3.94124537e-22)) ((1.16966105e-18 -3.05646858e-20 1.44487720e-13) (-8.79654178e-19 5.26763842e-22 -4.10240172e-09))
5.25            	((5.34881186e+00 -1.07686722e-06 2.19565919e-20) (6.85342538e-01 -3.31673696e-08 -3.91113095e-22)) ((1.16751143e-18 -3.05603054e-20 1.12709972e-13) (-8.80969877e-19 5.23880022e-22 -2.78728911e-09))
5.3             	((5.33940753e+00 -9.63345625e-07 2.17978697e-20) (6.84339513e-01 -3.31461595e-08 -3.88163173e-22)) ((1.16535916e-18 -3.05599746e-20 1.46665666e-13) (-8.82259559e-19 5.21034180e-22 -1.52010493e-09))
5.35            	((5.32944272e+00 -9.63588992e-07 2.16456628e-20) (6.83351634e-01 -3.26656367e-08 -3.85229275e-22)) ((1.16313205e-18 -3.05548756e-20 1.22947225e-13) (-8.83546617e-19 5.18183321e-22 -2.87433057e-10))
5.4             	((5.31980746e+00 -9.23402907e-07 2.14922876e-20) (6.82377924e-01 -3.18656879e-08 -3.82344190e-22)) ((1.16094260e-18 -3.05512525e-20 1.13635880e-13) (-8.84813567e-19 5.15368588e-22 9.78283524e-10))
5.45            	((5.30978058e+00 -8.37390353e-07 2.13329010e-20) (6.81413845e-01 -3.06536862e-08 -3.79485674e-22)) ((1.15875540e-18 -3.05455364e-20 1.14367934e-13) (-8.86047457e-19 5.12576155e-22 2.26745203e-09))
5.5             	((5.29905534e+00 -7.86412854e-07 2.11640318e-20) (6.80452429e-01 -2.93031927e-08 -3.76643586e-22)) ((1.15652780e-18 -3.05349181e-20 1.11219627e-13) (-8.87253587e-19 5.09790729e-22 3.47560510e-09))
5.55            	((5.28963359e+00 -8.37351598e-07 2.10257564e-20) (6.79503550e-01 -2.84260474e-08 -3.73846485e-22)) ((1.15439138e-18 -3.05288190e-20 1.19045399e-13) (-8.88398807e-19 5.07031311e-22 4.63643513e-09))
5.6             	((5.28031597e+00 -6.88454231e-07 2.08847346e-20) (6.78571217e-01 -2.65719290e-08 -3.71103471e-22)) ((1.15229185e-18 -3.05222588e-20 9.30336537e-14) (-8.89513443e-19 5.04312431e-22 5.58019850e-09))
5.65            	((5.27054275e+00 -6.72573869e-07 2.07434960e-20) (6.77655907e-01 -2.55939633e-08 -3.68381747e-22)) ((1.15014524e-18 -3.05113828e-20 1.11289450e-13) (-8.89713863e-19 5.01638338e-22 6.34527796e-09))
5.7             	((5.26125735e+00 -6.75328099e-07 2.06094325e-20) (6.76757489e-01 -2.49019229e-08 -3.65762070e-22)) ((1.14806892e-18 -3.05018683e-20 1.03863966e-13) (-8.89053127e-19 4.99016259e-22 7.19834154e-09))
5.75            	((5.25226493e+00 -1.91679688e-07 2.04576521e-20) (6.75872003e-01 -2.24350398e-08 -3.63236156e-22)) ((1.14611988e-18 -3.04940579e-20 9.43780644e-14) (-8.88438326e-19 4.96479725e-22 8.37835126e-09))
5.8             	((5.24349777e+00 -3.35308114e-07 2.03173415e-20) (6.75000472e-01 -2.09379386e-08 -3.60809208e-22)) ((1.14419308e-18 -3.04865523e-20 1.06010686e-13) (-8.87847613e-19 4.94021300e-22 9.26020963e-09))
5.85            	((5.23455338e+00 -1.05854288e-07 2.01753852e-20) (6.74140198e-01 -1.86343603e-08 -3.58462939e-22)) ((1.14228451e-18 -3.04776943e-20 9.21381027e-14) (-8.87254296e-19 4.91642198e-22 1.03075759e-08))
5.9             	((5.22522970e+00 2.65037605e-08 2.00225012e-20) (6.73285809e-01 -1.58310889e-08 -3.56184051e-22)) ((1.14040401e-18 -3.04668426e-20 1.15571181e-13) (-8.86655041e-19 4.89324229e-22 1.14319105e-08))
5.95            	((5.21690851e+00 -1.87295580e-07 1.98967183e-20) (6.72443678e-01 -1.40749251e-08 -3.53960081e-22)) ((1.13856076e-18 -3.04602805e-20 9.71653313e-14) (-8.86020402e-19 4.87046303e-22 1.21704168e-08))
6               	((5.20781178e+00 2.28681395e-07 1.97516454e-20) (6.71609007e-01 -1.03348537e-08 -3.51776668e-22)) ((1.13676448e-18 -3.04503728e-20 1.35565604e-13) (-8.85383576e-19 4.84821332e-22 1.36963445e-08))
6.05            	((5.19793825e+00 1.07839146e-07 1.96054555e-20) (6.70774174e-01 -7.47081185e-09 -3.49604334e-22)) ((1.13493323e-18 -3.04353974e-20 1.48846647e-13) (-8.84874473e-19 4.82590597e-22 1.47196699e-08))
6.1             	((5.18789603e+00 2.67040779e-07 1.94408094e-20) (6.69932183e-01 -4.42147031e-09 -3.47454309e-22)) ((1.13309242e-18 -3.04192728e-20 1.87661952e-13) (-8.84371821e-19 4.80386716e-22 1.55896920e-08))
6.15            	((5.17969322e+00 -1.04687925e-07 1.93276854e-20) (6.69098553e-01 -3.54190640e-09 -3.45341842e-22)) ((1.13135686e-18 -3.04116158e-20 8.13160303e-14) (-8.83833623e-19 4.78194849e-22 1.55957458e-08))
6.2             	((5.17133778e+00 3.63111805e-07 1.91895799e-20) (6.68273786e-01 -9.64327229e-10 -3.43237238e-22)) ((1.12959669e-18 -3.04026198e-20 1.82018029e-13) (-8.83299347e-19 4.76039160e-22 1.60019295e-08))
6.25            	((5.16314963e+00 1.92082848e-07 1.90680560e-20) (6.67459875e-01 1.19258937e-09 -3.41130248e-22)) ((1.12779005e-18 -3.03930565e-20 1.34489642e-13) (-8.82754606e-19 4.73864299e-22 1.59014836e-08))
6.3             	((5.15377556e+00 5.38568299e-07 1.89164466e-20) (6.66645937e-01 5.76964481e-09 -3.39024831e-22)) ((1.12603800e-18 -3.03781488e-20 2.22439255e-13) (-8.82229342e-19 4.71705039e-22 1.58649676e-08))
6.35            	((5.14528377e+00 -8.57650310e-08 1.87895710e-20) (6.65841616e-01 6.25496463e-09 -3.36938934e-22)) ((1.12429813e-18 -3.03658886e-20 1.26556318e-13) (-8.81625078e-19 4.69548726e-22 1.60775918e-08))
6.4             	((5.13733582e+00 6.00235580e-07 1.86593779e-20) (6.65046169e-01 1.12909914e-08 -3.34910979e-22)) ((1.12268094e-18 -3.03570177e-20 1.56812497e-13) (-8.81011977e-19 4.67446226e-22 1.70855282e-08))
6.45            	((5.12959434e+00 3.01912824e-07 1.85317054e-20) (6.64261902e-01 1.55181247e-08 -3.32893592e-22)) ((1.12107896e-18 -3.03485408e-20 1.19836866e-13) (-8.80388695e-19 4.65351508e-22 1.80478861e-08))
6.5             	((5.12213548e+00 5.14118250e-07 1.84064825e-20) (6.63490799e-01 2.13227008e-08 -3.30905177e-22)) ((1.11949653e-18 -3.03408078e-20 9.69363478e-14) (-8.79743282e-19 4.63280827e-22 1.93759286e-08))
6.55            	((5.11471031e+00 3.88376066e-07 1.82855350e-20) (6.62732261e-01 2.58878401e-08 -3.28935638e-22)) ((1.11792122e-18 -3.03327008e-20 7.45501751e-14) (-8.79078060e-19 4.61233173e-22 2.07604195e-08))
6.6             	((5.10763011e+00 5.49966138e-07 1.81717696e-20) (6.61987676e-01 3.09886930e-08 -3.26994632e-22)) ((1.11636667e-18 -3.03256960e-20 5.25361005e-14) (-8.78396150e-19 4.59212938e-22 2.22177474e-08))
6.65            	((5.10096868e+00 1.22978859e-06 1.80610861e-20) (6.61259207e-01 4.03375300e-08 -3.25091801e-22)) ((1.11483962e-18 -3.03203639e-20 2.93137910e-14) (-8.77702592e-19 4.57226108e-22 2.37356881e-08))
6.7             	((5.09465888e+00 9.45677509e-07 1.79534584e-20) (6.60549052e-01 4.60999156e-08 -3.23200386e-22)) ((1.11333569e-18 -3.03164363e-20 2.35636163e-14) (-8.76999125e-19 4.55254909e-22 2.45083892e-08))
6.75            	((5.08649963e+00 5.43231717e-06 1.78191314e-20) (6.59840246e-01 7.79448415e-08 -3.21401508e-22)) ((1.11179723e-18 -3.03037066e-20 -8.48010898e-14) (-8.76337172e-19 4.53343712e-22 2.84504442e-08))
6.8             	((5.07961021e+00 -2.62483151e-06 1.77242050e-20) (6.59138587e-01 5.13659250e-08 -3.19360051e-22)) ((1.11028248e-18 -3.02962423e-20 5.44564394e-14) (-8.75670523e-19 4.51314440e-22 2.55263969e-08))
6.85            	((5.07279915e+00 3.70680553e-06 1.76228014e-20) (6.58441949e-01 5.93986026e-08 -3.17436312e-22)) ((1.10880469e-18 -3.02892036e-20 -1.58757556e-14) (-8.74944495e-19 4.49449773e-22 2.62038735e-08))
6.9             	((5.06492648e+00 5.59510211e-06 1.74867987e-20) (6.57741628e-01 8.27243072e-08 -3.15502783e-22)) ((1.10733500e-18 -3.02772877e-20 -1.02680017e-13) (-8.74155822e-19 4.47552853e-22 2.77079759e-08))