# Force coefficients
# liftDir       : (0.00000000e+00 1.00000000e+00 0.00000000e+00)
# dragDir       : (1.00000000e+00 0.00000000e+00 0.00000000e+00)
# pitchAxis     : (0.00000000e+00 0.00000000e+00 1.00000000e+00)
# magUInf       : 2.50000000e+00
# lRef          : 2.00000000e+00
# Aref          : 2.00000000e+00
# CofR          : (0.00000000e+00 0.00000000e+00 0.00000000e+00)
# Time          	Cm              	Cd              	Cl              	Cl(f)           	Cl(r)           
0               	-9.60342916e-17	8.36013161e-01	3.88578059e-17	-7.66053887e-17	1.15463195e-16
0.05            	-3.75390696e-09	2.76432558e+01	-1.26614057e-06	-6.36824191e-07	-6.29316377e-07
0.1             	-1.91675411e-09	-1.11099406e+01	2.86401079e-06	1.43008864e-06	1.43392215e-06
0.15            	5.58484521e-09	1.63544895e+00	-2.23798215e-06	-1.11340623e-06	-1.12457592e-06
0.2             	5.79987784e-09	1.13837393e+00	1.01144698e-06	5.11523366e-07	4.99923610e-07
0.25            	1.69932304e-09	1.11668295e+00	-4.37019213e-07	-2.16810283e-07	-2.20208929e-07
0.3             	-2.98415003e-10	1.05011270e+00	1.35721043e-07	6.75621064e-08	6.81589364e-08
0.35            	-1.96501471e-09	9.90848583e-01	-1.66794827e-07	-8.53624281e-08	-8.14323987e-08
0.4             	-2.40710595e-09	9.60629579e-01	-2.26651060e-07	-1.15732636e-07	-1.10918424e-07
0.45            	-2.20016510e-09	9.52601360e-01	-3.03682338e-07	-1.54041334e-07	-1.49641004e-07
0.5             	-1.62946579e-09	9.58034465e-01	2.49833808e-07	1.23287438e-07	1.26546370e-07
0.55            	-1.24189107e-09	9.72459006e-01	-9.82453924e-08	-5.03645873e-08	-4.78808051e-08
0.6             	-8.20264581e-10	9.92294920e-01	-7.56976464e-09	-4.60514690e-09	-2.96461774e-09
0.65            	-4.16961287e-10	1.01712840e+00	-1.81632870e-08	-9.49860479e-09	-8.66468222e-09
0.7             	-1.51787200e-10	1.04499010e+00	-2.10983938e-08	-1.07009841e-08	-1.03974097e-08
0.75            	1.88694709e-11	1.07307176e+00	-2.45723582e-08	-1.22673096e-08	-1.23050486e-08
0.8             	8.19086579e-11	1.10401612e+00	-2.39397036e-08	-1.18879431e-08	-1.20517605e-08
0.85            	8.99254079e-11	1.13384435e+00	-2.96614601e-08	-1.47408046e-08	-1.49206555e-08
0.9             	6.73877844e-11	1.16476862e+00	-1.63324252e-08	-8.09882483e-09	-8.23360040e-09
0.95            	1.63131827e-11	1.19265326e+00	-4.32858687e-08	-2.16266212e-08	-2.16592475e-08
1               	3.27259421e-11	1.22008406e+00	-3.69532044e-08	-1.84438763e-08	-1.85093282e-08
1.05            	3.31017579e-11	1.24415098e+00	-3.53927327e-08	-1.76632646e-08	-1.77294681e-08
1.1             	4.48719581e-11	1.26722398e+00	-4.94265102e-08	-2.46683832e-08	-2.47581271e-08
1.15            	3.02789255e-11	1.28608199e+00	-5.39958907e-08	-2.69676664e-08	-2.70282243e-08
1.2             	-8.32375641e-12	1.30225677e+00	-5.92449641e-08	-2.96308058e-08	-2.96141583e-08
1.25            	3.39265281e-11	1.31638884e+00	-6.35541633e-08	-3.17431551e-08	-3.18110082e-08
1.3             	8.95942485e-11	1.32679333e+00	-7.46647804e-08	-3.72427960e-08	-3.74219845e-08
1.35            	1.45013948e-10	1.33176538e+00	-8.90618023e-08	-4.43858872e-08	-4.46759151e-08
1.4             	1.46328983e-10	1.33309975e+00	-9.44569600e-08	-4.70821510e-08	-4.73748090e-08
1.45            	6.93754511e-11	1.33227995e+00	-9.31679739e-08	-4.65146115e-08	-4.66533624e-08
1.5             	-5.53129639e-11	1.32891664e+00	-1.21046732e-07	-6.05786789e-08	-6.04680530e-08
1.55            	-1.98079776e-11	1.32125106e+00	-1.00778225e-07	-5.04089206e-08	-5.03693046e-08
1.6             	6.69421030e-11	1.31141881e+00	-1.25832501e-07	-6.28493085e-08	-6.29831927e-08
1.65            	1.87379151e-10	1.30221827e+00	-1.14307552e-07	-5.69663971e-08	-5.73411554e-08
1.7             	1.98292295e-10	1.28940761e+00	-1.27307651e-07	-6.34555331e-08	-6.38521177e-08
1.75            	3.64580785e-10	1.27490993e+00	2.52474127e-07	1.26601645e-07	1.25872483e-07
1.8             	3.01244895e-10	1.26160122e+00	-1.21780049e-07	-6.05887798e-08	-6.11912696e-08
1.85            	3.35818621e-10	1.25156720e+00	-8.33963249e-09	-3.83399762e-09	-4.50563487e-09
1.9             	3.61977822e-10	1.23829441e+00	-1.33073519e-08	-6.29169814e-09	-7.01565378e-09
1.95            	4.19556173e-10	1.22575201e+00	-1.16378564e-08	-5.39937202e-09	-6.23848437e-09
2               	4.23904444e-10	1.21373866e+00	-2.26226582e-08	-1.08874246e-08	-1.17352335e-08
2.05            	4.17820312e-10	1.20362762e+00	-1.38151918e-08	-6.48977560e-09	-7.32541623e-09
2.1             	4.38627371e-10	1.19465906e+00	-2.34613781e-08	-1.12920617e-08	-1.21693164e-08
2.15            	4.15232778e-10	1.18766684e+00	-1.54934540e-08	-7.33149423e-09	-8.16195978e-09
2.2             	4.14612240e-10	1.18013575e+00	-1.65338628e-08	-7.85231918e-09	-8.68154366e-09
2.25            	3.90816887e-10	1.17365598e+00	-1.80583219e-08	-8.63834406e-09	-9.41997783e-09
2.3             	4.49724061e-10	1.16690292e+00	-8.70528016e-09	-3.90291602e-09	-4.80236414e-09
2.35            	4.89390067e-10	1.16117836e+00	-1.33061525e-08	-6.16368617e-09	-7.14246630e-09
2.4             	4.83645563e-10	1.15581774e+00	-4.44886707e-07	-2.21959708e-07	-2.22926999e-07
2.45            	6.26565134e-10	1.15063193e+00	3.98985254e-09	2.62149140e-09	1.36836114e-09
2.5             	6.04366981e-10	1.14544646e+00	-1.02126804e-07	-5.04590350e-08	-5.16677689e-08
2.55            	6.75715761e-10	1.14063524e+00	-1.32071154e-07	-6.53598614e-08	-6.67112929e-08
2.6             	7.52534226e-10	1.13604104e+00	-1.20854591e-07	-5.96747615e-08	-6.11798299e-08
2.65            	8.32573350e-10	1.13110285e+00	-1.08668955e-07	-5.35019041e-08	-5.51670508e-08
2.7             	8.41080346e-10	1.12604064e+00	-1.08100439e-07	-5.32091390e-08	-5.48912997e-08
2.75            	7.97123321e-10	1.12056496e+00	-1.30792770e-07	-6.45992618e-08	-6.61935084e-08
2.8             	7.94454015e-10	1.11627411e+00	-1.41076587e-07	-6.97438396e-08	-7.13327477e-08
2.85            	7.53946244e-10	1.11142357e+00	-1.07039593e-07	-5.27658505e-08	-5.42737430e-08
2.9             	7.24031052e-10	1.10628951e+00	-1.08543928e-07	-5.35479330e-08	-5.49959951e-08
2.95            	6.91714388e-10	1.10079875e+00	-1.41653473e-07	-7.01350221e-08	-7.15184509e-08
3               	6.64372690e-10	1.09548387e+00	-1.24938601e-07	-6.18049276e-08	-6.31336729e-08
3.05            	6.44764829e-10	1.09007660e+00	-1.07742674e-07	-5.32265721e-08	-5.45161018e-08
3.1             	6.49480512e-10	1.08526933e+00	-1.14971537e-07	-5.68362882e-08	-5.81352492e-08
3.15            	5.84341526e-10	1.08046189e+00	-1.17223315e-07	-5.80273161e-08	-5.91959991e-08
3.2             	5.60228093e-10	1.07604535e+00	-1.09733137e-07	-5.43063403e-08	-5.54267965e-08
3.25            	4.42443017e-10	1.07150256e+00	-1.24233001e-07	-6.16740573e-08	-6.25589434e-08
3.3             	3.23905221e-10	1.06717573e+00	-1.31631862e-07	-6.54920260e-08	-6.61398364e-08
3.35            	2.50558476e-10	1.06301097e+00	-1.27812969e-07	-6.36559261e-08	-6.41570430e-08
3.4             	2.18882578e-10	1.05944958e+00	-1.22446432e-07	-6.10043332e-08	-6.14420983e-08
3.45            	2.15648045e-10	1.05548187e+00	-1.18598622e-07	-5.90836630e-08	-5.95149591e-08
3.5             	2.25826886e-10	1.05150121e+00	-1.22651112e-07	-6.10997292e-08	-6.15513830e-08
3.55            	1.99364946e-10	1.04822765e+00	-1.15400324e-07	-5.75007972e-08	-5.78995271e-08
3.6             	1.19058898e-10	1.04454927e+00	-1.00027194e-07	-4.98945381e-08	-5.01326559e-08
3.65            	-2.78070143e-11	1.04117853e+00	-1.11258540e-07	-5.56570770e-08	-5.56014629e-08
3.7             	-2.13089279e-10	1.03804448e+00	-1.08797387e-07	-5.46117829e-08	-5.41856044e-08
3.75            	-4.64039103e-10	1.03523823e+00	-1.06446600e-07	-5.36873393e-08	-5.27592611e-08
3.8             	-7.23745726e-10	1.03231550e+00	-1.05442569e-07	-5.34450302e-08	-5.19975387e-08
3.85            	-9.93739877e-10	1.02947966e+00	-1.07704327e-07	-5.48459036e-08	-5.28584239e-08
3.9             	-1.19479256e-09	1.02669666e+00	-1.05949629e-07	-5.41696071e-08	-5.17800220e-08
3.95            	-1.30552859e-09	1.02407439e+00	-1.05058511e-07	-5.38347842e-08	-5.12237271e-08
4               	-1.31579489e-09	1.02143794e+00	-1.01636456e-07	-5.21340228e-08	-4.95024330e-08
4.05            	-1.26468116e-09	1.01879124e+00	-1.00776031e-07	-5.16526964e-08	-4.91233341e-08
4.1             	-1.36734240e-09	1.01592372e+00	-6.66107633e-07	-3.34421159e-07	-3.31686474e-07
4.15            	-1.14622280e-09	1.01353776e+00	4.59174089e-07	2.28440822e-07	2.30733267e-07
4.2             	-1.32908462e-09	1.01092308e+00	-8.12075968e-07	-4.07367069e-07	-4.04708899e-07
4.25            	-1.30842753e-09	1.00807280e+00	-8.57467669e-08	-4.41818110e-08	-4.15649559e-08
4.3             	-1.38674003e-09	1.00552001e+00	-2.41240509e-07	-1.22006994e-07	-1.19233514e-07
4.35            	-1.42771147e-09	1.00268639e+00	-2.14705271e-07	-1.08780347e-07	-1.05924924e-07
4.4             	-1.36017758e-09	1.00011698e+00	-2.44627705e-07	-1.23674030e-07	-1.20953675e-07
4.45            	-1.25409396e-09	9.97532953e-01	-2.16620514e-07	-1.09564351e-07	-1.07056163e-07
4.5             	-1.14539390e-09	9.95141490e-01	-2.04662426e-07	-1.03476607e-07	-1.01185819e-07
4.55            	-1.03218985e-09	9.92906550e-01	-2.16466098e-07	-1.09265239e-07	-1.07200859e-07
4.6             	-9.00842224e-10	9.90797532e-01	-1.88813045e-07	-9.53073647e-08	-9.35056802e-08
4.65            	-7.65445655e-10	9.88752771e-01	-1.79353292e-07	-9.04420919e-08	-8.89112006e-08
4.7             	-6.37954819e-10	9.86707223e-01	-1.75742907e-07	-8.85094085e-08	-8.72334989e-08
4.75            	-5.31289254e-10	9.84529339e-01	-1.66272095e-07	-8.36673370e-08	-8.26047585e-08
4.8             	-4.58978656e-10	9.81994889e-01	-1.45625028e-07	-7.32714928e-08	-7.23535355e-08
4.85            	-4.39151798e-10	9.80197921e-01	-1.69099813e-07	-8.49890585e-08	-8.41107549e-08
4.9             	-4.52454103e-10	9.78086011e-01	-1.63048652e-07	-8.19767800e-08	-8.10718718e-08
4.95            	-4.04057852e-10	9.75978589e-01	-1.66490159e-07	-8.36491373e-08	-8.28410216e-08
5               	-3.59565646e-10	9.73877657e-01	-1.87300938e-07	-9.40100346e-08	-9.32909033e-08
5.05            	-4.93737197e-10	9.72282312e-01	-1.68879439e-07	-8.49334566e-08	-8.39459822e-08
5.1             	-4.62101801e-10	9.70514969e-01	-1.87537506e-07	-9.42308546e-08	-9.33066510e-08
5.15            	-4.06078604e-10	9.68820153e-01	-1.81211424e-07	-9.10117907e-08	-9.01996335e-08
5.2             	-3.28180579e-10	9.67301071e-01	-1.80220866e-07	-9.04386134e-08	-8.97822522e-08
5.25            	-2.22974112e-10	9.65464704e-01	-1.77605535e-07	-8.90257415e-08	-8.85797933e-08
5.3             	-1.21596661e-10	9.63799527e-01	-1.59438685e-07	-7.98409394e-08	-7.95977461e-08
5.35            	-2.29848087e-11	9.62047096e-01	-1.59400741e-07	-7.97233551e-08	-7.96773855e-08
5.4             	7.82717728e-11	9.60349662e-01	-1.52842975e-07	-7.63432159e-08	-7.64997594e-08
5.45            	1.81405312e-10	9.58591108e-01	-1.38887046e-07	-6.92621179e-08	-6.96249285e-08
5.5             	2.78057305e-10	9.56721243e-01	-1.30514567e-07	-6.49792264e-08	-6.55353410e-08
5.55            	3.70924334e-10	9.55061943e-01	-1.38524423e-07	-6.88912873e-08	-6.96331360e-08
5.6             	4.46423323e-10	9.53421950e-01	-1.14404186e-07	-5.67556695e-08	-5.76485161e-08
5.65            	5.07631140e-10	9.51711785e-01	-1.11706853e-07	-5.53457954e-08	-5.63610577e-08
5.7             	5.75875632e-10	9.50082374e-01	-1.12036804e-07	-5.54425261e-08	-5.65942774e-08
5.75            	6.70275651e-10	9.48501909e-01	-3.42583564e-08	-1.64589026e-08	-1.77994539e-08
5.8             	7.40825252e-10	9.46959719e-01	-5.69993685e-08	-2.77588590e-08	-2.92405095e-08
5.85            	8.24613446e-10	9.45390973e-01	-1.99181837e-08	-9.13447838e-09	-1.07837053e-08
5.9             	9.14562082e-10	9.43762481e-01	1.70762745e-09	1.76837581e-09	-6.07483564e-11
5.95            	9.73641120e-10	9.42296350e-01	-3.22192807e-08	-1.51359993e-08	-1.70832815e-08
6               	1.09571841e-09	9.40707326e-01	3.49354466e-08	1.85634417e-08	1.63720049e-08
6.05            	1.17758550e-09	9.38993988e-01	1.60589334e-08	9.20705219e-09	6.85188119e-09
6.1             	1.24719038e-09	9.37252513e-01	4.20190894e-08	2.22567351e-08	1.97623543e-08
6.15            	1.24766617e-09	9.35806684e-01	-1.73167730e-08	-7.41072035e-09	-9.90605268e-09
6.2             	1.28016892e-09	9.34337851e-01	5.79435964e-08	3.02519671e-08	2.76916293e-08
6.25            	1.27212945e-09	9.32897520e-01	3.09240700e-08	1.67341645e-08	1.41899056e-08
6.3             	1.26921520e-09	9.31267439e-01	8.70940711e-08	4.48162507e-08	4.22778203e-08
6.35            	1.28621747e-09	9.29780062e-01	-1.27216106e-08	-5.07458785e-09	-7.64702278e-09
6.4             	1.36685480e-09	9.28381119e-01	9.78442514e-08	5.02889805e-08	4.75552709e-08
6.45            	1.44384047e-09	9.27016998e-01	5.07889518e-08	2.68383164e-08	2.39506354e-08
6.5             	1.55008205e-09	9.25700205e-01	8.56705521e-08	4.43853581e-08	4.12851940e-08
6.55            	1.66083953e-09	9.24390812e-01	6.62822249e-08	3.48019520e-08	3.14802729e-08
6.6             	1.77742400e-09	9.23138845e-01	9.29527729e-08	4.82538104e-08	4.46989624e-08
6.65            	1.89885739e-09	9.21956462e-01	2.03220178e-07	1.03508947e-07	9.97112319e-08
6.7             	1.96067302e-09	9.20833269e-01	1.58684388e-07	8.13028670e-08	7.73815210e-08
6.75            	2.27602875e-09	9.19414380e-01	8.81641921e-07	4.43096989e-07	4.38544932e-07
6.8             	2.04211611e-09	9.18199808e-01	-4.11754494e-07	-2.03835131e-07	-2.07919363e-07
6.85            	2.09630861e-09	9.16998576e-01	6.02592662e-07	3.03392640e-07	2.99200022e-07
6.9             	2.21662986e-09	9.15626897e-01	9.08452226e-07	4.56442743e-07	4.52009483e-07
6.95            	2.01203197e-09	9.14375594e-01	-1.34192274e-07	-6.50841048e-08	-6.91081687e-08
7               	2.07714325e-09	9.13109362e-01	6.61900422e-07	3.33027354e-07	3.28873068e-07
7.05            	2.07870167e-09	9.11909532e-01	5.43747085e-07	2.73952244e-07	2.69794841e-07
7.1             	2.15355712e-09	9.10672254e-01	5.47285699e-07	2.75796407e-07	2.71489292e-07
7.15            	2.26343379e-09	9.09362199e-01	5.32520931e-07	2.68523899e-07	2.63997031e-07
7.2             	2.44195344e-09	9.08145596e-01	5.68640544e-07	2.86762225e-07	2.81878318e-07
7.25            	2.68101541e-09	9.06992341e-01	6.51079611e-07	3.28220821e-07	3.22858790e-07
7.3             	2.95566550e-09	9.05856375e-01	6.44444195e-07	3.25177763e-07	3.19266432e-07
7.35            	3.26799939e-09	9.04666301e-01	6.93147879e-07	3.49841939e-07	3.43305940e-07
7.4             	3.58104388e-09	9.03496803e-01	6.62974551e-07	3.35068319e-07	3.27906232e-07
7.45            	3.88675312e-09	9.02343299e-01	6.63340254e-07	3.35556880e-07	3.27783374e-07
7.5             	4.31430851e-09	9.01050086e-01	8.34980653e-07	4.21804635e-07	4.13176018e-07
7.55            	4.66022206e-09	8.99879635e-01	6.56405567e-07	3.32863005e-07	3.23542561e-07
7.6             	4.96921493e-09	8.98747180e-01	7.04281687e-07	3.57110059e-07	3.47171629e-07
7.65            	5.21823382e-09	8.97591937e-01	7.35601971e-07	3.73019219e-07	3.62582751e-07
7.7             	5.40717183e-09	8.96420640e-01	7.15343705e-07	3.63079024e-07	3.52264681e-07
7.75            	5.55459676e-09	8.95312789e-01	7.22982846e-07	3.67046020e-07	3.55936826e-07
7.8             	5.66729585e-09	8.94168726e-01	7.28210900e-07	3.69772746e-07	3.58438154e-07
7.85            	5.74131522e-09	8.92987179e-01	7.07857055e-07	3.59669843e-07	3.48187212e-07
7.9             	5.80238860e-09	8.91829293e-01	7.11717220e-07	3.61660998e-07	3.50056221e-07
7.95            	5.86987939e-09	8.90707830e-01	7.24234498e-07	3.67987128e-07	3.56247369e-07
8               	5.93346815e-09	8.89579659e-01	7.25725173e-07	3.68796054e-07	3.56929118e-07
8.05            	5.97214152e-09	8.88540591e-01	6.30077101e-07	3.21010692e-07	3.09066409e-07
8.1             	6.03214038e-09	8.87504189e-01	7.05923103e-07	3.58993692e-07	3.46929411e-07
8.15            	6.06749168e-09	8.86421314e-01	6.34294539e-07	3.23214761e-07	3.11079778e-07
8.2             	6.12929746e-09	8.85402674e-01	6.77832629e-07	3.45045612e-07	3.32787017e-07
8.25            	6.36234225e-09	8.84323892e-01	7.96613268e-07	4.04668976e-07	3.91944292e-07
8.3             	6.75705435e-09	8.83215068e-01	9.42190859e-07	4.77852484e-07	4.64338375e-07
8.35            	6.76429902e-09	8.82382859e-01	5.67733774e-07	2.90631186e-07	2.77102588e-07
8.4             	6.84607637e-09	8.81449957e-01	7.58252027e-07	3.85972090e-07	3.72279937e-07
8.45            	7.09818557e-09	8.80360413e-01	9.62953916e-07	4.88575143e-07	4.74378772e-07
8.5             	7.13373156e-09	8.79525937e-01	6.20061224e-07	3.17164344e-07	3.02896880e-07
8.55            	7.32975973e-09	8.78538812e-01	9.23449592e-07	4.69054555e-07	4.54395036e-07
8.6             	7.57564625e-09	8.77365843e-01	8.98041428e-07	4.56596360e-07	4.41445068e-07
8.65            	7.81472360e-09	8.76301698e-01	8.96447889e-07	4.56038668e-07	4.40409221e-07
8.7             	8.09984938e-09	8.75162066e-01	1.02054912e-06	5.18374410e-07	5.02174712e-07
8.75            	8.47057736e-09	8.73892602e-01	1.09334589e-06	5.55143524e-07	5.38202369e-07
8.8             	8.80522524e-09	8.72699677e-01	1.05889192e-06	5.38251184e-07	5.20640734e-07
8.85            	8.79289707e-09	8.71771456e-01	7.95299984e-07	4.06442889e-07	3.88857095e-07
8.9             	8.86388024e-09	8.70747302e-01	9.24892718e-07	4.71310239e-07	4.53582479e-07
8.95            	8.91562722e-09	8.69698665e-01	8.90042284e-07	4.53936769e-07	4.36105515e-07
9               	8.87759166e-09	8.68692804e-01	8.09132366e-07	4.13443775e-07	3.95688591e-07
9.05            	9.07298408e-09	8.67589052e-01	9.85231178e-07	5.01688573e-07	4.83542605e-07
9.1             	9.34519656e-09	8.66388397e-01	1.02168900e-06	5.20189697e-07	5.01499304e-07
9.15            	9.48296396e-09	8.65316236e-01	8.94799544e-07	4.56882736e-07	4.37916808e-07
9.2             	9.71295037e-09	8.64203932e-01	9.44070403e-07	4.81748152e-07	4.62322251e-07
9.25            	9.58029822e-09	8.63282728e-01	8.18292989e-07	4.18726793e-07	3.99566196e-07
9.3             	9.58205774e-09	8.62310231e-01	7.75262148e-07	3.97213132e-07	3.78049016e-07
9.35            	9.62745074e-09	8.61344289e-01	8.61720554e-07	4.40487727e-07	4.21232826e-07
9.4             	9.68544238e-09	8.60388480e-01	8.52102414e-07	4.35736650e-07	4.16365765e-07
9.45            	9.68608368e-09	8.59453246e-01	7.57100651e-07	3.88236409e-07	3.68864242e-07
9.5             	9.66042140e-09	8.58520355e-01	7.67841146e-07	3.93580994e-07	3.74260151e-07
9.55            	9.79009121e-09	8.57515127e-01	9.43532709e-07	4.81556446e-07	4.61976263e-07
9.6             	9.80834237e-09	8.56563062e-01	7.41646002e-07	3.80631343e-07	3.61014659e-07
9.65            	9.66491121e-09	8.55655211e-01	7.86912844e-07	4.03121333e-07	3.83791511e-07
9.7             	9.47951398e-09	8.54808811e-01	7.38034309e-07	3.78496669e-07	3.59537641e-07
9.75            	9.31886211e-09	8.53950215e-01	7.16657973e-07	3.67647849e-07	3.49010124e-07
9.8             	9.14665129e-09	8.53142497e-01	7.21348724e-07	3.69821013e-07	3.51527711e-07
9.85            	9.00868952e-09	8.52282000e-01	6.74701684e-07	3.46359532e-07	3.28342153e-07
9.9             	8.87565367e-09	8.51456597e-01	7.16096209e-07	3.66923758e-07	3.49172451e-07
9.95            	8.75438004e-09	8.50529224e-01	6.63477311e-07	3.40493036e-07	3.22984275e-07
10              	8.55854943e-09	8.49631180e-01	5.72512505e-07	2.94814802e-07	2.77697703e-07
10.05           	8.39942332e-09	8.48799819e-01	6.49549908e-07	3.33174377e-07	3.16375531e-07
10.1            	8.28047540e-09	8.47893453e-01	6.61396580e-07	3.38978765e-07	3.22417814e-07
10.15           	8.15881604e-09	8.47025935e-01	5.97282430e-07	3.06800031e-07	2.90482399e-07
10.2            	8.04284732e-09	8.46222495e-01	6.04596665e-07	3.10341180e-07	2.94255485e-07
10.25           	7.93180717e-09	8.45488970e-01	6.35537592e-07	3.25700603e-07	3.09836989e-07
10.3            	7.77726223e-09	8.44616371e-01	5.06722289e-07	2.61138407e-07	2.45583882e-07
10.35           	7.63716738e-09	8.43748353e-01	5.23114160e-07	2.69194247e-07	2.53919912e-07
10.4            	7.51447742e-09	8.42945356e-01	5.22179971e-07	2.68604463e-07	2.53575508e-07
10.45           	7.41116705e-09	8.42079194e-01	5.10663346e-07	2.62742840e-07	2.47920506e-07
10.5            	7.25170246e-09	8.41154880e-01	4.04536690e-07	2.09520048e-07	1.95016643e-07
10.55           	7.11766311e-09	8.40320490e-01	4.86881477e-07	2.50558402e-07	2.36323075e-07
10.6            	6.96520536e-09	8.39453161e-01	3.76300282e-07	1.95115346e-07	1.81184936e-07
10.65           	6.85347328e-09	8.38570308e-01	4.62740958e-07	2.38223952e-07	2.24517006e-07
10.7            	6.77054974e-09	8.37787417e-01	3.79591509e-07	1.96566304e-07	1.83025205e-07
10.75           	6.61568818e-09	8.36881064e-01	3.45152017e-07	1.79191697e-07	1.65960320e-07
10.8            	6.50334823e-09	8.36120880e-01	4.26762005e-07	2.19884351e-07	2.06877654e-07
10.85           	6.41068429e-09	8.35328541e-01	3.29446067e-07	1.71133718e-07	1.58312349e-07
10.9            	6.25204319e-09	8.34518449e-01	3.23678915e-07	1.68091501e-07	1.55587415e-07
10.95           	6.06623259e-09	8.33701059e-01	2.85193042e-07	1.48662754e-07	1.36530288e-07
11              	5.88643463e-09	8.32929088e-01	3.07568078e-07	1.59670473e-07	1.47897604e-07
11.05           	5.68985133e-09	8.32132936e-01	2.79637801e-07	1.45508752e-07	1.34129049e-07
11.1            	5.49024416e-09	8.31381458e-01	2.72067925e-07	1.41524207e-07	1.30543719e-07
11.15           	5.28637209e-09	8.30551679e-01	2.33504561e-07	1.22038653e-07	1.11465908e-07
11.2            	5.11334906e-09	8.29872264e-01	3.63508516e-07	1.86867607e-07	1.76640909e-07
11.25           	4.90036691e-09	8.29139827e-01	2.44969532e-07	1.27385133e-07	1.17584399e-07
11.3            	4.66151414e-09	8.28442243e-01	2.22612208e-07	1.15967618e-07	1.06644590e-07
11.35           	4.47903188e-09	8.27846703e-01	3.42299343e-07	1.75628703e-07	1.66670640e-07
11.4            	4.23452741e-09	8.27154598e-01	2.36728372e-07	1.22598714e-07	1.14129659e-07
11.45           	3.98625676e-09	8.26496068e-01	2.61100712e-07	1.34536613e-07	1.26564099e-07
11.5            	3.70713555e-09	8.25776826e-01	2.21642935e-07	1.14528603e-07	1.07114332e-07
11.55           	3.42934932e-09	8.25137794e-01	2.47778490e-07	1.27318594e-07	1.20459896e-07
11.6            	3.15538049e-09	8.24504783e-01	2.98200528e-07	1.52255645e-07	1.45944884e-07
11.65           	2.85849570e-09	8.23809082e-01	2.43764315e-07	1.24740653e-07	1.19023662e-07
11.7            	2.55496308e-09	8.23114894e-01	2.30582174e-07	1.17846050e-07	1.12736124e-07
11.75           	2.25154125e-09	8.22394518e-01	2.86077960e-07	1.45290521e-07	1.40787439e-07
11.8            	1.93358574e-09	8.21670051e-01	2.34031648e-07	1.18949410e-07	1.15082238e-07
11.85           	1.62222343e-09	8.20970360e-01	2.34920524e-07	1.19082485e-07	1.15838039e-07
11.9            	1.31491369e-09	8.20255205e-01	2.62184514e-07	1.32407170e-07	1.29777343e-07
11.95           	1.03899877e-09	8.19580324e-01	2.78128762e-07	1.40103380e-07	1.38025382e-07
12              	7.21104947e-10	8.18839447e-01	2.10941638e-07	1.06191924e-07	1.04749714e-07
12.05           	4.41461446e-10	8.18126577e-01	2.89448716e-07	1.45165819e-07	1.44282897e-07
12.1            	1.58906565e-10	8.17404409e-01	2.81310740e-07	1.40814276e-07	1.40496463e-07
12.15           	-1.29407158e-10	8.16671471e-01	2.67482888e-07	1.33612037e-07	1.33870851e-07
12.2            	-3.82827681e-10	8.15955293e-01	3.38296054e-07	1.68765199e-07	1.69530855e-07
12.25           	-6.14827965e-10	8.15222288e-01	3.90361048e-07	1.94565696e-07	1.95795352e-07
12.3            	-4.10888499e-10	8.14517128e-01	6.45899694e-07	3.22538958e-07	3.23360735e-07
12.35           	-6.32581346e-10	8.13786522e-01	3.85786662e-07	1.92260750e-07	1.93525912e-07
12.4            	-9.16875867e-10	8.13090854e-01	3.94873528e-07	1.96519888e-07	1.98353640e-07
12.45           	-7.44718917e-10	8.12400667e-01	7.85258379e-07	3.91884471e-07	3.93373909e-07
12.5            	-5.57853872e-10	8.11709631e-01	7.73054554e-07	3.85969423e-07	3.87085131e-07
12.55           	-4.35542391e-10	8.10997153e-01	7.58488844e-07	3.78808880e-07	3.79679964e-07
12.6            	-3.06799239e-10	8.10343642e-01	8.97268613e-07	4.48327507e-07	4.48941106e-07
12.65           	-1.96681452e-10	8.09731071e-01	9.27226278e-07	4.63416457e-07	4.63809820e-07
12.7            	-1.48915913e-10	8.09086970e-01	8.82541316e-07	4.41121742e-07	4.41419574e-07
12.75           	-1.00464146e-10	8.08454543e-01	9.82883284e-07	4.91341178e-07	4.91542106e-07
12.8            	-8.03976599e-11	8.07832690e-01	9.89683542e-07	4.94761373e-07	4.94922169e-07
12.85           	1.51622161e-11	8.07209306e-01	1.06061223e-06	5.30321275e-07	5.30290950e-07
12.9            	5.17837055e-11	8.06581996e-01	1.05337167e-06	5.26737619e-07	5.26634052e-07
12.95           	3.86454772e-11	8.05939299e-01	1.07740182e-06	5.38739555e-07	5.38662264e-07
13              	3.75658019e-11	8.05356129e-01	1.17731339e-06	5.88694262e-07	5.88619130e-07
13.05           	6.68927943e-11	8.04761022e-01	1.23857461e-06	6.19354197e-07	6.19220412e-07
13.1            	1.04586085e-10	8.04252772e-01	1.30745762e-06	6.53833395e-07	6.53624223e-07
13.15           	6.73307679e-11	8.03643164e-01	1.20060847e-06	6.00371564e-07	6.00236902e-07
13.2            	4.76964240e-11	8.03046765e-01	1.33733482e-06	6.68715108e-07	6.68619715e-07
13.25           	-3.15698577e-11	8.02414387e-01	1.27287388e-06	6.36405371e-07	6.36468511e-07
13.3            	6.81893935e-11	8.01895084e-01	1.51880099e-06	7.59468683e-07	7.59332305e-07
13.35           	1.12527016e-10	8.01302816e-01	1.39853007e-06	6.99377562e-07	6.99152508e-07
13.4            	1.80909895e-10	8.00734299e-01	1.51693490e-06	7.58648362e-07	7.58286542e-07
13.45           	2.43186485e-10	8.00178200e-01	1.53951870e-06	7.70002539e-07	7.69516166e-07
13.5            	3.41381555e-10	7.99566651e-01	1.66193614e-06	8.31309452e-07	8.30626689e-07
13.55           	4.27371734e-10	7.98960492e-01	1.65678798e-06	8.28821364e-07	8.27966621e-07
13.6            	5.12625516e-10	7.98357531e-01	1.70857481e-06	8.54800031e-07	8.53774780e-07
13.65           	7.15237584e-10	7.97724324e-01	1.80576064e-06	9.03595558e-07	9.02165083e-07
13.7            	8.05491479e-10	7.97134628e-01	1.78390968e-06	8.92760331e-07	8.91149348e-07
13.75           	9.15411365e-10	7.96539054e-01	1.85460134e-06	9.28216080e-07	9.26385258e-07
13.8            	1.04888563e-09	7.95939412e-01	1.92649540e-06	9.64296584e-07	9.62198813e-07
13.85           	1.19472701e-09	7.95342297e-01	1.97366142e-06	9.88025438e-07	9.85635984e-07
13.9            	1.33136991e-09	7.94746901e-01	2.01772977e-06	1.01019625e-06	1.00753351e-06
13.95           	1.46820602e-09	7.94151500e-01	2.02010981e-06	1.01152311e-06	1.00858670e-06
14              	1.61852176e-09	7.93551393e-01	2.09232020e-06	1.04777862e-06	1.04454158e-06
14.05           	1.83231678e-09	7.92992969e-01	2.21623421e-06	1.10994942e-06	1.10628479e-06
14.1            	2.08192685e-09	7.92457389e-01	2.28050352e-06	1.14233369e-06	1.13816983e-06
14.15           	2.27925651e-09	7.91880905e-01	2.33085877e-06	1.16770864e-06	1.16315013e-06
14.2            	2.49855142e-09	7.91316609e-01	2.34835730e-06	1.17667720e-06	1.17168010e-06
14.25           	2.62892125e-09	7.90751466e-01	2.47972429e-06	1.24249107e-06	1.23723323e-06
14.3            	2.86336709e-09	7.90190683e-01	2.36731142e-06	1.18651908e-06	1.18079234e-06
14.35           	3.16759124e-09	7.89638923e-01	2.52030033e-06	1.26331776e-06	1.25698258e-06
14.4            	3.51591015e-09	7.89121733e-01	2.61947375e-06	1.31325279e-06	1.30622097e-06
14.45           	3.85793439e-09	7.88549920e-01	2.51848796e-06	1.26310192e-06	1.25538605e-06
14.5            	4.26215728e-09	7.88022996e-01	2.62549090e-06	1.31700761e-06	1.30848329e-06
14.55           	4.69772120e-09	7.87506029e-01	2.74998841e-06	1.37969192e-06	1.37029648e-06
14.6            	5.09436728e-09	7.86954433e-01	2.70562644e-06	1.35790758e-06	1.34771885e-06
14.65           	5.75545551e-09	7.86440627e-01	3.37062571e-06	1.69106831e-06	1.67955740e-06
14.7            	6.40153191e-09	7.85917091e-01	2.78731553e-06	1.40005930e-06	1.38725623e-06
14.75           	7.17554807e-09	7.85443097e-01	3.12891318e-06	1.57163214e-06	1.55728104e-06
14.8            	7.91326774e-09	7.84949083e-01	3.07939410e-06	1.54761032e-06	1.53178378e-06
14.85           	8.62216889e-09	7.84465193e-01	3.14046187e-06	1.57885310e-06	1.56160877e-06
14.9            	9.31935181e-09	7.83996490e-01	3.16755457e-06	1.59309664e-06	1.57445793e-06
14.95           	1.00040675e-08	7.83519813e-01	3.18318771e-06	1.60159792e-06	1.58158979e-06
15              	1.07064173e-08	7.83050883e-01	3.21346979e-06	1.61744131e-06	1.59602848e-06
15.05           	1.14207943e-08	7.82573370e-01	3.21459950e-06	1.61872054e-06	1.59587895e-06
15.1            	1.21592564e-08	7.82095635e-01	3.23318053e-06	1.62874952e-06	1.60443101e-06
15.15           	1.29094003e-08	7.81593575e-01	3.21698204e-06	1.62140042e-06	1.59558162e-06
15.2            	1.36793718e-08	7.81120643e-01	3.23712152e-06	1.63224013e-06	1.60488139e-06
15.25           	1.44601959e-08	7.80658164e-01	3.27138559e-06	1.65015299e-06	1.62123260e-06
15.3            	1.52562587e-08	7.80153394e-01	3.33906856e-06	1.68479054e-06	1.65427802e-06
15.35           	1.60542710e-08	7.79672189e-01	3.29394172e-06	1.66302513e-06	1.63091659e-06
15.4            	1.68355441e-08	7.79174107e-01	3.33877702e-06	1.68622405e-06	1.65255297e-06
15.45           	1.76223485e-08	7.78685710e-01	3.23888887e-06	1.63706679e-06	1.60182209e-06
15.5            	1.84272926e-08	7.78198406e-01	3.22483055e-06	1.63084257e-06	1.59398798e-06
15.55           	1.92450108e-08	7.77716699e-01	3.14855779e-06	1.59352390e-06	1.55503388e-06
15.6            	2.00644185e-08	7.77227049e-01	3.16104228e-06	1.60058556e-06	1.56045672e-06
15.65           	2.08822150e-08	7.76736464e-01	3.09990667e-06	1.57083555e-06	1.52907112e-06
15.7            	2.17808258e-08	7.76300923e-01	3.12914701e-06	1.58635433e-06	1.54279268e-06
15.75           	2.25946616e-08	7.75836291e-01	3.19971408e-06	1.62245170e-06	1.57726238e-06