# Force coefficients
# liftDir       : (0.00000000e+00 1.00000000e+00 0.00000000e+00)
# dragDir       : (1.00000000e+00 0.00000000e+00 0.00000000e+00)
# pitchAxis     : (0.00000000e+00 0.00000000e+00 1.00000000e+00)
# magUInf       : 1.00000000e+00
# lRef          : 2.00000000e+00
# Aref          : 2.00000000e+00
# CofR          : (0.00000000e+00 0.00000000e+00 0.00000000e+00)
# Time          	Cm              	Cd              	Cl              	Cl(f)           	Cl(r)           
0               	-1.56992475e-16	2.09003290e+00	8.93382590e-17	-1.12323345e-16	2.01661604e-16
0.05            	-1.63229391e-09	6.67611272e+01	-3.18882181e-06	-1.59604320e-06	-1.59277861e-06
0.1             	-5.02475406e-10	-2.67446190e+01	8.03315764e-06	4.01607634e-06	4.01708129e-06
0.15            	-2.64761690e-09	2.72166516e+00	-4.67990012e-06	-2.34259768e-06	-2.33730244e-06
0.2             	-2.37944035e-09	2.10412648e+00	1.62666235e-06	8.10951736e-07	8.15710617e-07
0.25            	-2.98702254e-09	1.95027414e+00	-7.49739175e-07	-3.77856610e-07	-3.71882565e-07
0.3             	-2.68555830e-09	1.79710203e+00	8.05757294e-08	3.76023064e-08	4.29734230e-08
0.35            	-2.29131456e-09	1.65972636e+00	1.07342664e-07	5.13800174e-08	5.59626465e-08
0.4             	-1.71318654e-09	1.54617143e+00	-1.00955776e-07	-5.21910746e-08	-4.87647016e-08
0.45            	-1.33790870e-09	1.45841653e+00	-2.40026912e-08	-1.33392543e-08	-1.06634369e-08
0.5             	-1.25569009e-09	1.38839540e+00	5.98912268e-08	2.86899233e-08	3.12013035e-08
0.55            	-1.00923240e-09	1.33518681e+00	-7.78088867e-08	-3.99136758e-08	-3.78952110e-08
0.6             	-8.02096073e-10	1.29495392e+00	-3.90329936e-08	-2.03185929e-08	-1.87144007e-08
0.65            	-6.04172763e-10	1.26442831e+00	-3.42282338e-08	-1.77182896e-08	-1.65099441e-08
0.7             	-5.33264201e-10	1.24094308e+00	4.19384586e-09	1.56365873e-09	2.63018713e-09
0.75            	-5.39602262e-10	1.22327984e+00	-1.95709579e-07	-9.83943920e-08	-9.73151874e-08
0.8             	-5.14860834e-10	1.20982137e+00	-8.53668107e-08	-4.31982662e-08	-4.21685445e-08
0.85            	-4.73833529e-10	1.20027884e+00	-8.41932550e-08	-4.25704610e-08	-4.16227940e-08
0.9             	-4.41781242e-10	1.19316773e+00	-1.44546388e-07	-7.27149753e-08	-7.18314128e-08
0.95            	-4.84234625e-10	1.18854933e+00	-1.32120135e-07	-6.65443023e-08	-6.55758331e-08
1               	-4.84796455e-10	1.18639225e+00	-1.49008157e-07	-7.49888751e-08	-7.40192822e-08
1.05            	-5.08961038e-10	1.18550065e+00	-1.80378432e-07	-9.06981770e-08	-8.96802549e-08
1.1             	-5.94500132e-10	1.18661994e+00	-1.63974168e-07	-8.25815840e-08	-8.13925837e-08
1.15            	-7.02572396e-10	1.18864561e+00	2.36734033e-08	1.11341292e-08	1.25392740e-08
1.2             	-6.04738153e-10	1.19221079e+00	-9.23326855e-08	-4.67710809e-08	-4.55616046e-08
1.25            	-5.09990222e-10	1.19655910e+00	-6.94958275e-08	-3.52579040e-08	-3.42379236e-08
1.3             	-4.65707935e-10	1.20142287e+00	-7.71169073e-08	-3.90241616e-08	-3.80927457e-08
1.35            	-4.68866528e-10	1.20712895e+00	-8.63629311e-08	-4.36503321e-08	-4.27125990e-08
1.4             	-4.39834617e-10	1.21341882e+00	-8.32591523e-08	-4.20694107e-08	-4.11897415e-08
1.45            	-3.99374956e-10	1.22062175e+00	-8.42325933e-08	-4.25156716e-08	-4.17169217e-08
1.5             	-3.81997074e-10	1.22720369e+00	-1.09609714e-07	-5.51868539e-08	-5.44228598e-08
1.55            	-3.16847355e-10	1.23466754e+00	-1.03810253e-07	-5.22219739e-08	-5.15882792e-08
1.6             	-3.09331667e-10	1.24235825e+00	-1.00417310e-07	-5.05179865e-08	-4.98993232e-08
1.65            	-2.63417726e-10	1.25087972e+00	-1.11751734e-07	-5.61392847e-08	-5.56124493e-08
1.7             	-2.47183877e-10	1.25810470e+00	-1.24073974e-07	-6.22841707e-08	-6.17898029e-08
1.75            	-1.97016192e-10	1.26613153e+00	-1.23036796e-07	-6.17154141e-08	-6.13213817e-08
1.8             	-1.86229852e-10	1.27424978e+00	-1.24535603e-07	-6.24540315e-08	-6.20815718e-08
1.85            	-1.66754885e-10	1.28237276e+00	-1.26220140e-07	-6.32768249e-08	-6.29433151e-08
1.9             	-1.73623499e-10	1.29027640e+00	-1.41534229e-07	-7.09407380e-08	-7.05934910e-08
1.95            	-1.45110810e-10	1.29838989e+00	-1.41080423e-07	-7.06853223e-08	-7.03951007e-08
2               	-1.51461497e-10	1.30543538e+00	-1.39186001e-07	-6.97444622e-08	-6.94415392e-08
2.05            	-1.80938599e-10	1.31311257e+00	-1.39842268e-07	-7.01020727e-08	-6.97401955e-08
2.1             	-1.88994202e-10	1.32062718e+00	-1.56221913e-07	-7.82999505e-08	-7.79219621e-08
2.15            	-1.76822653e-10	1.32773115e+00	-1.66726105e-07	-8.35398752e-08	-8.31862299e-08
2.2             	-1.81329105e-10	1.33480519e+00	-1.63798680e-07	-8.20806689e-08	-8.17180107e-08
2.25            	-1.73531981e-10	1.34168602e+00	-1.61316597e-07	-8.08318305e-08	-8.04847665e-08
2.3             	-2.00565039e-10	1.34752016e+00	-1.91925209e-07	-9.61631695e-08	-9.57620394e-08
2.35            	-2.01257993e-10	1.35363221e+00	-1.88657542e-07	-9.45300292e-08	-9.41275132e-08
2.4             	-2.27002079e-10	1.35992056e+00	-1.93981434e-07	-9.72177193e-08	-9.67637152e-08
2.45            	-2.32680272e-10	1.36556836e+00	-1.69830593e-07	-8.51479769e-08	-8.46826164e-08
2.5             	-2.46616247e-10	1.37070936e+00	-1.91432379e-07	-9.59628056e-08	-9.54695731e-08
2.55            	-2.70027902e-10	1.37586624e+00	-1.87155523e-07	-9.38477896e-08	-9.33077338e-08
2.6             	-2.81769053e-10	1.38033504e+00	-1.92133355e-07	-9.63484467e-08	-9.57849086e-08
2.65            	-2.74098434e-10	1.38406181e+00	-2.13653825e-07	-1.07101011e-07	-1.06552814e-07
2.7             	-2.96843889e-10	1.38731862e+00	-2.21514301e-07	-1.11053995e-07	-1.10460307e-07
2.75            	-3.09433808e-10	1.39084012e+00	-2.10385792e-07	-1.05502330e-07	-1.04883462e-07
2.8             	-3.60931405e-10	1.39334472e+00	-2.13657947e-07	-1.07189905e-07	-1.06468042e-07
2.85            	-3.48196032e-10	1.39607402e+00	-1.67189758e-07	-8.39430753e-08	-8.32466832e-08
2.9             	-3.24482775e-10	1.39874507e+00	-1.99790975e-07	-1.00219970e-07	-9.95710045e-08
2.95            	-2.96318421e-10	1.40137359e+00	-1.71401652e-07	-8.59971443e-08	-8.54045075e-08
3               	-2.82293362e-10	1.40262026e+00	-1.96367461e-07	-9.84660239e-08	-9.79014372e-08
3.05            	-2.65664933e-10	1.40411526e+00	-1.88286168e-07	-9.44087490e-08	-9.38774191e-08
3.1             	-2.61170651e-10	1.40529898e+00	-1.92113332e-07	-9.63178366e-08	-9.57954953e-08
3.15            	-2.57403856e-10	1.40595754e+00	-1.93754847e-07	-9.71348272e-08	-9.66200195e-08
3.2             	-2.55600610e-10	1.40637385e+00	-2.07161746e-07	-1.03836474e-07	-1.03325272e-07
3.25            	-2.58455343e-10	1.40663646e+00	-2.14711259e-07	-1.07614085e-07	-1.07097174e-07
3.3             	-2.65652260e-10	1.40651355e+00	-2.17628929e-07	-1.09080117e-07	-1.08548812e-07
3.35            	-2.57467111e-10	1.40666225e+00	-2.26334096e-07	-1.13424515e-07	-1.12909581e-07
3.4             	-2.48028228e-10	1.40568672e+00	-2.04842397e-07	-1.02669227e-07	-1.02173170e-07
3.45            	-2.78792586e-10	1.40487437e+00	-2.04867172e-07	-1.02712379e-07	-1.02154793e-07
3.5             	-2.64041276e-10	1.40410122e+00	-2.39570837e-07	-1.20049460e-07	-1.19521377e-07
3.55            	-2.55022318e-10	1.40239314e+00	-2.43073261e-07	-1.21791653e-07	-1.21281608e-07
3.6             	-2.44637593e-10	1.40096138e+00	-2.30985546e-07	-1.15737410e-07	-1.15248135e-07
3.65            	-2.32900896e-10	1.39947248e+00	-2.31272769e-07	-1.15869285e-07	-1.15403484e-07
3.7             	-1.60034735e-10	1.39744583e+00	4.01192386e-07	2.00436158e-07	2.00756228e-07
3.75            	-1.90122328e-10	1.39551578e+00	-9.58861926e-07	-4.79621085e-07	-4.79240841e-07
3.8             	-1.67599295e-10	1.39373164e+00	-6.00639465e-08	-3.01995725e-08	-2.98643739e-08
3.85            	-1.05902249e-10	1.39033856e+00	4.17044589e-07	2.08416392e-07	2.08628197e-07
3.9             	-1.23004832e-10	1.38795035e+00	-9.72003256e-07	-4.86124633e-07	-4.85878623e-07
3.95            	-1.95467434e-11	1.38578164e+00	5.62148514e-07	2.81054710e-07	2.81093804e-07
4               	1.98499802e-11	1.38335743e+00	-3.36762358e-07	-1.68361329e-07	-1.68401029e-07
4.05            	6.13925458e-11	1.38084430e+00	-1.34594992e-07	-6.72361034e-08	-6.73588885e-08
4.1             	8.23622764e-11	1.37760854e+00	-1.26869673e-07	-6.33524745e-08	-6.35171990e-08
4.15            	7.75332635e-11	1.37454512e+00	-1.31154479e-07	-6.54997060e-08	-6.56547725e-08
4.2             	7.09679281e-11	1.37149406e+00	-1.42059811e-07	-7.09589375e-08	-7.11008733e-08
4.25            	6.79799372e-11	1.36867017e+00	-1.43698285e-07	-7.17811626e-08	-7.19171225e-08
4.3             	6.36799126e-11	1.36592528e+00	-1.52582333e-07	-7.62274866e-08	-7.63548465e-08
4.35            	6.46361456e-11	1.36274106e+00	-1.47957183e-07	-7.39139554e-08	-7.40432277e-08
4.4             	1.02119356e-10	1.35991515e+00	-1.22218870e-07	-6.10073156e-08	-6.12115543e-08
4.45            	1.46333492e-10	1.35702714e+00	-1.09899813e-07	-5.48035729e-08	-5.50962399e-08
4.5             	1.80625688e-10	1.35393606e+00	-1.65453054e-07	-8.25459012e-08	-8.29071526e-08
4.55            	2.10799935e-10	1.35050796e+00	-1.63013725e-07	-8.12960624e-08	-8.17176622e-08
4.6             	2.38945842e-10	1.34693420e+00	-1.43869532e-07	-7.16958201e-08	-7.21737118e-08
4.65            	2.63264885e-10	1.34385309e+00	-1.20720519e-07	-6.00969947e-08	-6.06235244e-08
4.7             	2.78656644e-10	1.34098328e+00	-1.51633947e-07	-7.55383170e-08	-7.60956302e-08
4.75            	2.91275973e-10	1.33760406e+00	-1.41784877e-07	-7.06011625e-08	-7.11837145e-08
4.8             	3.07131084e-10	1.33478622e+00	-1.59544528e-07	-7.94651327e-08	-8.00793948e-08
4.85            	3.20342984e-10	1.33182914e+00	-1.59522396e-07	-7.94408550e-08	-8.00815410e-08
4.9             	3.32167678e-10	1.32855058e+00	-1.55410106e-07	-7.73728852e-08	-7.80372206e-08
4.95            	3.45749557e-10	1.32553623e+00	-1.45038384e-07	-7.21734425e-08	-7.28649417e-08
5               	3.57791089e-10	1.32254357e+00	-1.49105882e-07	-7.41951499e-08	-7.49107321e-08
5.05            	3.60697198e-10	1.31968289e+00	-1.51131766e-07	-7.52051856e-08	-7.59265800e-08
5.1             	3.73918189e-10	1.31677810e+00	-1.50323415e-07	-7.47877892e-08	-7.55356256e-08
5.15            	3.94452766e-10	1.31407761e+00	-1.55213490e-07	-7.72122922e-08	-7.80011977e-08
5.2             	4.09593256e-10	1.31138540e+00	-1.38278352e-07	-6.87295826e-08	-6.95487691e-08
5.25            	3.94885794e-10	1.30888041e+00	-1.58924321e-07	-7.90672747e-08	-7.98570463e-08
5.3             	3.76063212e-10	1.30597018e+00	-1.26794379e-07	-6.30211262e-08	-6.37732526e-08
5.35            	3.71422079e-10	1.30329833e+00	-1.55615129e-07	-7.74361425e-08	-7.81789866e-08
5.4             	3.75083766e-10	1.30082675e+00	-1.39525770e-07	-6.93878014e-08	-7.01379689e-08
5.45            	2.68255903e-10	1.29818320e+00	-9.48917352e-07	-4.74190420e-07	-4.74726932e-07
5.5             	1.67915958e-10	1.29509055e+00	1.04373222e-08	5.38657704e-09	5.05074513e-09
5.55            	1.41757993e-10	1.29330621e+00	4.13531822e-07	2.06907669e-07	2.06624153e-07
5.6             	5.62508778e-11	1.29083699e+00	-1.10547947e-06	-5.52683483e-07	-5.52795985e-07
5.65            	4.17564070e-12	1.28841331e+00	-6.54468072e-08	-3.27192279e-08	-3.27275792e-08
5.7             	-7.15442554e-11	1.28617233e+00	-2.86082753e-07	-1.43112921e-07	-1.42969832e-07
5.75            	-1.24862685e-10	1.28383417e+00	-2.47405523e-07	-1.23827624e-07	-1.23577899e-07
5.8             	-1.57544375e-10	1.28180501e+00	-2.67793219e-07	-1.34054154e-07	-1.33739065e-07
5.85            	-1.83401023e-10	1.27978773e+00	-2.69553049e-07	-1.34959925e-07	-1.34593123e-07
5.9             	-2.00079671e-10	1.27765494e+00	-2.41168315e-07	-1.20784237e-07	-1.20384078e-07
5.95            	-2.01819998e-10	1.27500163e+00	-2.21139849e-07	-1.10771744e-07	-1.10368104e-07
6               	-1.98334211e-10	1.27296927e+00	-3.00636422e-07	-1.50516545e-07	-1.50119877e-07
6.05            	-1.95733922e-10	1.27093146e+00	-2.35966558e-07	-1.18179013e-07	-1.17787545e-07
6.1             	-1.63033851e-10	1.26836456e+00	-1.95995817e-07	-9.81609423e-08	-9.78348746e-08
6.15            	-1.61748010e-10	1.26712097e+00	-3.87294555e-07	-1.93809025e-07	-1.93485529e-07
6.2             	-1.20329729e-10	1.26500820e+00	-1.15143253e-07	-5.76919560e-08	-5.74512966e-08
6.25            	-1.04055896e-10	1.26308075e+00	-2.98957491e-07	-1.49582801e-07	-1.49374690e-07
6.3             	-8.49664006e-11	1.26125429e+00	-2.44060294e-07	-1.22115114e-07	-1.21945181e-07
6.35            	-6.26207935e-11	1.25925211e+00	-2.03330881e-07	-1.01728061e-07	-1.01602820e-07
6.4             	-4.50543875e-11	1.25719826e+00	-2.37309347e-07	-1.18699728e-07	-1.18609619e-07
6.45            	-4.34205939e-11	1.25527840e+00	-2.33915378e-07	-1.17001110e-07	-1.16914269e-07
6.5             	-3.80464396e-11	1.25340017e+00	-2.48208532e-07	-1.24142313e-07	-1.24066220e-07
6.55            	-6.68021097e-11	1.25152300e+00	-2.55886170e-07	-1.28009887e-07	-1.27876283e-07
6.6             	-1.03257047e-10	1.24962824e+00	-2.64157758e-07	-1.32182136e-07	-1.31975622e-07
6.65            	-1.36815225e-10	1.24785573e+00	-2.59889206e-07	-1.30081418e-07	-1.29807788e-07
6.7             	-1.62816062e-10	1.24600389e+00	-2.44621508e-07	-1.22473570e-07	-1.22147938e-07
6.75            	-1.83110679e-10	1.24419562e+00	-2.46771047e-07	-1.23568634e-07	-1.23202413e-07
6.8             	-2.09321249e-10	1.24277013e+00	-2.81107310e-07	-1.40762976e-07	-1.40344334e-07
6.85            	-2.19495040e-10	1.24106186e+00	-1.86598672e-07	-9.35188312e-08	-9.30798411e-08
6.9             	-2.24828920e-10	1.23925748e+00	-2.17976778e-07	-1.09213218e-07	-1.08763560e-07
6.95            	-2.42105624e-10	1.23791445e+00	-2.89097111e-07	-1.44790661e-07	-1.44306450e-07
7               	-2.47395523e-10	1.23630226e+00	-1.76804028e-07	-8.86494096e-08	-8.81546186e-08
7.05            	-2.57475251e-10	1.23473674e+00	-2.47544106e-07	-1.24029528e-07	-1.23514578e-07
7.1             	-2.67751454e-10	1.23309683e+00	-2.05717165e-07	-1.03126334e-07	-1.02590831e-07
7.15            	-2.73367870e-10	1.23150848e+00	-2.10556622e-07	-1.05551679e-07	-1.05004943e-07
7.2             	-2.76550532e-10	1.22996532e+00	-2.01600683e-07	-1.01076892e-07	-1.00523791e-07
7.25            	-2.79452094e-10	1.22843525e+00	-2.08413624e-07	-1.04486264e-07	-1.03927360e-07
7.3             	-2.81942344e-10	1.22685211e+00	-2.07580590e-07	-1.04072238e-07	-1.03508353e-07
7.35            	-2.79637254e-10	1.22528931e+00	-1.93902250e-07	-9.72307621e-08	-9.66714876e-08
7.4             	-2.65804556e-10	1.22337903e+00	-1.46535725e-07	-7.35336669e-08	-7.30020578e-08
7.45            	-2.72395515e-10	1.22214529e+00	-3.02035397e-07	-1.51290094e-07	-1.50745303e-07
7.5             	-2.61141099e-10	1.22062906e+00	-9.56163008e-08	-4.80692915e-08	-4.75470093e-08
7.55            	-2.58380094e-10	1.21912900e+00	-1.97448087e-07	-9.89824237e-08	-9.84656635e-08
7.6             	-2.48351825e-10	1.21763589e+00	-1.65071867e-07	-8.27842851e-08	-8.22875815e-08
7.65            	-2.43781877e-10	1.21606598e+00	-1.91278116e-07	-9.58828398e-08	-9.53952760e-08
7.7             	-2.37102382e-10	1.21462845e+00	-1.61999885e-07	-8.12370447e-08	-8.07628399e-08
7.75            	-2.31945820e-10	1.21322208e+00	-1.67593886e-07	-8.40288887e-08	-8.35649970e-08
7.8             	-2.26711992e-10	1.21188019e+00	-1.67568752e-07	-8.40110880e-08	-8.35576640e-08
7.85            	-2.25132749e-10	1.21041120e+00	-1.52926655e-07	-7.66884603e-08	-7.62381948e-08
7.9             	-2.23938018e-10	1.20887587e+00	-1.55936629e-07	-7.81922526e-08	-7.77443766e-08
7.95            	-2.17320326e-10	1.20730517e+00	-1.61213590e-07	-8.08241153e-08	-8.03894747e-08
8               	-2.13176962e-10	1.20596259e+00	-1.68782377e-07	-8.46043654e-08	-8.41780115e-08
8.05            	-2.02562206e-10	1.20456191e+00	-1.39864856e-07	-7.01349904e-08	-6.97298659e-08
8.1             	-1.97038287e-10	1.20320208e+00	-1.37996689e-07	-6.91953828e-08	-6.88013062e-08
8.15            	-1.80649175e-10	1.20190046e+00	-1.34626016e-07	-6.74936569e-08	-6.71323586e-08
8.2             	-1.79551666e-10	1.20076460e+00	-1.95846205e-07	-9.81026543e-08	-9.77435510e-08
8.25            	-1.75460068e-10	1.19944508e+00	-9.67411135e-08	-4.85460168e-08	-4.81950967e-08
8.3             	-1.72620133e-10	1.19812636e+00	-1.42887510e-07	-7.16163750e-08	-7.12711347e-08
8.35            	-1.84737533e-10	1.19682752e+00	-1.31869009e-07	-6.61192422e-08	-6.57497672e-08
8.4             	-1.78679671e-10	1.19550588e+00	-1.29981125e-07	-6.51692424e-08	-6.48118831e-08
8.45            	-1.68817400e-10	1.19424124e+00	-1.34199310e-07	-6.72684724e-08	-6.69308376e-08
8.5             	-1.62781393e-10	1.19297853e+00	-1.18789050e-07	-5.95573064e-08	-5.92317436e-08
8.55            	-1.57174693e-10	1.19171819e+00	-1.24592730e-07	-6.24535395e-08	-6.21391901e-08
8.6             	-1.51535215e-10	1.19046525e+00	-1.16709176e-07	-5.85061234e-08	-5.82030530e-08
8.65            	-1.70411894e-10	1.18923561e+00	-5.57681008e-07	-2.79010916e-07	-2.78670092e-07
8.7             	-2.37678707e-10	1.18793843e+00	-5.92729572e-08	-2.98741573e-08	-2.93987999e-08
8.75            	-3.01985218e-10	1.18671718e+00	-1.81060457e-07	-9.08322137e-08	-9.02282433e-08
8.8             	-3.47365585e-10	1.18549509e+00	-1.70405326e-07	-8.55500287e-08	-8.48552975e-08
8.85            	-3.78391215e-10	1.18421387e+00	-1.63449615e-07	-8.21031988e-08	-8.13464163e-08
8.9             	-3.97113890e-10	1.18294112e+00	-1.47195448e-07	-7.39948378e-08	-7.32006100e-08
8.95            	-4.12015204e-10	1.18186131e+00	-2.32869994e-07	-1.16847012e-07	-1.16022982e-07
9               	-4.24004014e-10	1.18075606e+00	-1.24060602e-07	-6.24543048e-08	-6.16062967e-08
9.05            	-4.33037917e-10	1.17957583e+00	-1.44997928e-07	-7.29320020e-08	-7.20659262e-08
9.1             	-4.34556166e-10	1.17824267e+00	-1.50687504e-07	-7.57783082e-08	-7.49091959e-08
9.15            	-4.43850432e-10	1.17736525e+00	-1.71311169e-07	-8.60994352e-08	-8.52117343e-08
9.2             	-4.56562803e-10	1.17634862e+00	-1.04046692e-07	-5.24799089e-08	-5.15667833e-08
9.25            	-4.70155812e-10	1.17522587e+00	-1.39075935e-07	-7.00081234e-08	-6.90678118e-08
9.3             	-4.69394490e-10	1.17408501e+00	-1.35587583e-07	-6.82631861e-08	-6.73243971e-08
9.35            	-4.59897328e-10	1.17303355e+00	-1.20826607e-07	-6.08732006e-08	-5.99534060e-08
9.4             	-4.47735620e-10	1.17195550e+00	-1.24987863e-07	-6.29416673e-08	-6.20461961e-08
9.45            	-4.36821568e-10	1.17087180e+00	-1.21270787e-07	-6.10722152e-08	-6.01985721e-08
9.5             	-4.28213426e-10	1.16979655e+00	-1.25145823e-07	-6.30011252e-08	-6.21446983e-08
9.55            	-4.25548528e-10	1.16872250e+00	-1.11495781e-07	-5.61734388e-08	-5.53223417e-08
9.6             	-4.21577140e-10	1.16767881e+00	-9.89337068e-08	-4.98884305e-08	-4.90452762e-08
9.65            	-4.14857438e-10	1.16661246e+00	-9.47743497e-08	-4.78020323e-08	-4.69723174e-08
9.7             	-4.99081033e-10	1.16549435e+00	-1.62289176e-07	-8.16436688e-08	-8.06455067e-08
9.75            	-5.97705373e-10	1.16444990e+00	-1.45648995e-07	-7.34222026e-08	-7.22267919e-08
9.8             	-6.89842013e-10	1.16343665e+00	-1.74554945e-07	-8.79673146e-08	-8.65876306e-08
9.85            	-6.81841778e-10	1.16255490e+00	-1.32045510e-07	-6.67045968e-08	-6.53409132e-08
9.9             	-7.36534119e-10	1.16164302e+00	-7.71233563e-08	-3.92982123e-08	-3.78251441e-08
9.95            	-8.07344881e-10	1.16054786e+00	-1.09737838e-07	-5.56762640e-08	-5.40615742e-08
10              	-8.71170183e-10	1.15935861e+00	-1.20629303e-07	-6.11858219e-08	-5.94434815e-08
10.05           	-9.12582091e-10	1.15839063e+00	-1.42770381e-07	-7.22977725e-08	-7.04726083e-08
10.1            	-9.50803453e-10	1.15746260e+00	-1.02785929e-07	-5.23437679e-08	-5.04421610e-08
10.15           	-9.86250762e-10	1.15654235e+00	-9.88647156e-08	-5.04186086e-08	-4.84461071e-08
10.2            	-1.01494576e-09	1.15565590e+00	-5.56349183e-08	-2.88324049e-08	-2.68025134e-08
10.25           	-1.04261912e-09	1.15479237e+00	-1.17545396e-07	-5.98153171e-08	-5.77300789e-08
10.3            	-1.06581076e-09	1.15390253e+00	-8.12710440e-08	-4.17013328e-08	-3.95697112e-08
10.35           	-1.08513356e-09	1.15303620e+00	-5.41061729e-08	-2.81382200e-08	-2.59679529e-08
10.4            	-1.10559512e-09	1.15211066e+00	-8.89642572e-08	-4.55877237e-08	-4.33765335e-08
10.45           	-1.12100419e-09	1.15122882e+00	-5.14790236e-08	-2.68605160e-08	-2.46185076e-08
10.5            	-1.13256177e-09	1.15034740e+00	-5.21042073e-08	-2.71846654e-08	-2.49195419e-08
10.55           	-1.14269941e-09	1.14945406e+00	-5.77848434e-08	-3.00351211e-08	-2.77497223e-08
10.6            	-1.14114349e-09	1.14860960e+00	-1.56649487e-08	-8.97361782e-09	-6.69133085e-09
10.65           	-1.13989668e-09	1.14775471e+00	-4.93226197e-08	-2.58012066e-08	-2.35214132e-08
10.7            	-1.12822432e-09	1.14686923e+00	1.37795535e-08	5.76155242e-09	8.01800106e-09
10.75           	-1.15164978e-09	1.14609369e+00	-1.88525731e-07	-9.54145151e-08	-9.31112155e-08
10.8            	-1.11049257e-09	1.14506483e+00	2.64353265e-07	1.31066140e-07	1.33287125e-07
10.85           	-1.11407700e-09	1.14415742e+00	-1.82832657e-07	-9.25304057e-08	-9.03022517e-08
10.9            	-1.09979544e-09	1.14325585e+00	2.61486538e-08	1.19745315e-08	1.41741223e-08
10.95           	-1.08761088e-09	1.14241823e+00	1.97155416e-08	8.77015990e-09	1.09453817e-08
11              	-1.07289056e-09	1.14157851e+00	1.06029731e-08	4.22859598e-09	6.37437709e-09
11.05           	-1.05317999e-09	1.14073953e+00	2.39194080e-08	1.09065240e-08	1.30128840e-08
11.1            	-1.03007889e-09	1.13990195e+00	2.72596865e-08	1.25997644e-08	1.46599222e-08
11.15           	-1.00126169e-09	1.13906849e+00	4.97256941e-08	2.38615853e-08	2.58641087e-08
11.2            	-9.66965301e-10	1.13822155e+00	5.06217819e-08	2.43439256e-08	2.62778562e-08
11.25           	-9.28064324e-10	1.13744617e+00	7.25318801e-08	3.53378757e-08	3.71940044e-08
11.3            	-8.88029287e-10	1.13667317e+00	5.50253955e-08	2.66246685e-08	2.84007271e-08
11.35           	-8.49986136e-10	1.13587406e+00	5.09012040e-08	2.46006159e-08	2.63005881e-08
11.4            	-8.07477567e-10	1.13511359e+00	8.32312456e-08	4.08081452e-08	4.24231004e-08
11.45           	-7.53771442e-10	1.13434824e+00	8.30293793e-08	4.07609182e-08	4.22684611e-08
11.5            	-7.04683469e-10	1.13360022e+00	9.51513008e-08	4.68709670e-08	4.82803339e-08
11.55           	-6.56276347e-10	1.13285970e+00	7.40937060e-08	3.63905767e-08	3.77031294e-08
11.6            	-6.16779578e-10	1.13210549e+00	5.79810161e-08	2.83737285e-08	2.96072876e-08
11.65           	-5.84247112e-10	1.13144915e+00	8.25063844e-08	4.06689451e-08	4.18374393e-08
11.7            	-4.78365738e-10	1.13048627e+00	3.94498106e-07	1.96770687e-07	1.97727419e-07
11.75           	-3.90478806e-10	1.12960705e+00	6.24843301e-08	3.08516863e-08	3.16326439e-08
11.8            	-4.02319887e-10	1.12904190e+00	-2.54420402e-07	-1.27612521e-07	-1.26807881e-07
11.85           	-3.38013121e-10	1.12832091e+00	4.39335365e-07	2.19329669e-07	2.20005695e-07
11.9            	-3.04925845e-10	1.12759391e+00	6.10022816e-08	3.01962150e-08	3.08060666e-08
11.95           	-2.50122428e-10	1.12688733e+00	1.65320763e-07	8.24102588e-08	8.29105037e-08
12              	-1.97539129e-10	1.12610749e+00	1.36121454e-07	6.78631877e-08	6.82582659e-08
12.05           	-1.45412928e-10	1.12537957e+00	1.47029642e-07	7.33694081e-08	7.36602339e-08
12.1            	-9.51122955e-11	1.12465589e+00	1.56147430e-07	7.79786027e-08	7.81688273e-08
12.15           	-4.47145874e-11	1.12393370e+00	1.60396517e-07	8.01535440e-08	8.02429732e-08
12.2            	3.81225168e-12	1.12320711e+00	1.58637330e-07	7.93224775e-08	7.93148530e-08
12.25           	5.27397837e-11	1.12248866e+00	1.68821988e-07	8.44637340e-08	8.43582544e-08
12.3            	1.03164771e-10	1.12176695e+00	1.72320036e-07	8.62631827e-08	8.60568532e-08
12.35           	1.49364088e-10	1.12103430e+00	1.60764750e-07	8.05317392e-08	8.02330111e-08
12.4            	1.95392189e-10	1.12025951e+00	1.76625416e-07	8.85081002e-08	8.81173158e-08
12.45           	2.39602532e-10	1.11967289e+00	1.80888509e-07	9.06838569e-08	9.02046519e-08
12.5            	2.89681366e-10	1.11903993e+00	2.04402938e-07	1.02491150e-07	1.01911787e-07
12.55           	3.32171805e-10	1.11837591e+00	1.63124916e-07	8.18946299e-08	8.12302863e-08
12.6            	3.74207396e-10	1.11773267e+00	1.79406703e-07	9.00775591e-08	8.93291443e-08
12.65           	4.14077504e-10	1.11715280e+00	1.73778588e-07	8.73033715e-08	8.64752165e-08
12.7            	4.78549856e-10	1.11626489e+00	1.12970608e-07	5.69638540e-08	5.60067543e-08
12.75           	5.29444051e-10	1.11560597e+00	3.39365443e-07	1.70212166e-07	1.69153277e-07
12.8            	5.82576675e-10	1.11495621e+00	1.80870334e-07	9.10177438e-08	8.98525904e-08
12.85           	6.64309329e-10	1.11428386e+00	2.57300968e-07	1.29314793e-07	1.27986175e-07
12.9            	7.03942903e-10	1.11365908e+00	1.64307396e-07	8.28576408e-08	8.14497550e-08
12.95           	7.59686933e-10	1.11304227e+00	2.20113063e-07	1.10816218e-07	1.09296844e-07
13              	8.49339280e-10	1.11239270e+00	2.85465393e-07	1.43582036e-07	1.41883357e-07
13.05           	9.22119197e-10	1.11174191e+00	2.63414044e-08	1.40928214e-08	1.22485830e-08
13.1            	1.01998047e-09	1.11109859e+00	3.08231489e-07	1.55135725e-07	1.53095764e-07
13.15           	1.10121280e-09	1.11042286e+00	3.82999398e-07	1.92600912e-07	1.90398486e-07
13.2            	1.19567376e-09	1.10974998e+00	9.57040180e-08	4.90476827e-08	4.66563352e-08
13.25           	1.23498367e-09	1.10914660e+00	2.10734655e-07	1.06602311e-07	1.04132344e-07
13.3            	1.27999298e-09	1.10866890e+00	3.51671551e-07	1.77115768e-07	1.74555782e-07
13.35           	1.29191033e-09	1.10802081e+00	6.61957240e-08	3.43897723e-08	3.18059517e-08
13.4            	1.41777208e-09	1.10739592e+00	3.56661706e-07	1.79748625e-07	1.76913081e-07
13.45           	1.48775077e-09	1.10682275e+00	2.50090467e-07	1.26532984e-07	1.23557483e-07
13.5            	1.65395779e-09	1.10619835e+00	3.91389171e-07	1.97348544e-07	1.94040628e-07
13.55           	1.78560927e-09	1.10558425e+00	2.93178225e-07	1.48374722e-07	1.44803503e-07
13.6            	1.94943905e-09	1.10496246e+00	4.03793789e-07	2.03846333e-07	1.99947455e-07
13.65           	2.09109861e-09	1.10436302e+00	3.54109835e-07	1.79146016e-07	1.74963819e-07
13.7            	2.16891981e-09	1.10383575e+00	4.66064621e-07	2.35201230e-07	2.30863391e-07
13.75           	2.34148247e-09	1.10306567e+00	2.95855761e-07	1.50269363e-07	1.45586398e-07
13.8            	2.38830871e-09	1.10245056e+00	2.18726318e-07	1.11751468e-07	1.06974850e-07
13.85           	2.38650673e-09	1.10185826e+00	2.46653938e-07	1.25713475e-07	1.20940462e-07
13.9            	2.37862996e-09	1.10126970e+00	2.50775841e-07	1.27766551e-07	1.23009291e-07
13.95           	2.37934024e-09	1.10069650e+00	2.52838406e-07	1.28798543e-07	1.24039863e-07
14              	2.40053288e-09	1.10012249e+00	2.71934214e-07	1.38367640e-07	1.33566574e-07
14.05           	2.44618951e-09	1.09954930e+00	2.92545572e-07	1.48718976e-07	1.43826597e-07
14.1            	2.60710028e-09	1.09891281e+00	4.48589210e-07	2.26901705e-07	2.21687505e-07
14.15           	2.62729160e-09	1.09851505e+00	3.15551867e-07	1.60403225e-07	1.55148642e-07
14.2            	2.80410292e-09	1.09787200e+00	3.32761696e-07	1.69184951e-07	1.63576745e-07
14.25           	2.92175098e-09	1.09731896e+00	3.61320372e-07	1.83581937e-07	1.77738435e-07
14.3            	3.04103913e-09	1.09675494e+00	3.79776090e-07	1.92929084e-07	1.86847006e-07
14.35           	3.18326410e-09	1.09614242e+00	4.15277033e-07	2.10821781e-07	2.04455253e-07
14.4            	3.21992608e-09	1.09561365e+00	2.79994460e-07	1.43217156e-07	1.36777304e-07
14.45           	3.27564412e-09	1.09511366e+00	3.58297354e-07	1.82424321e-07	1.75873033e-07
14.5            	3.35225144e-09	1.09459120e+00	3.59523151e-07	1.83113827e-07	1.76409324e-07
14.55           	3.44074017e-09	1.09403113e+00	3.68175441e-07	1.87528461e-07	1.80646980e-07
14.6            	3.55389842e-09	1.09353188e+00	4.14296821e-07	2.10702309e-07	2.03594512e-07
14.65           	3.63537052e-09	1.09295677e+00	2.58205946e-07	1.32738344e-07	1.25467603e-07
14.7            	3.75445661e-09	1.09243621e+00	5.49854765e-07	2.78681839e-07	2.71172926e-07
14.75           	3.86300970e-09	1.09191338e+00	3.83279067e-07	1.95502543e-07	1.87776524e-07
14.8            	3.95687660e-09	1.09139060e+00	3.03057203e-07	1.55485478e-07	1.47571725e-07
14.85           	4.00026899e-09	1.09093375e+00	4.15662740e-07	2.11831639e-07	2.03831101e-07
14.9            	4.16635179e-09	1.09025011e+00	5.39146122e-07	2.73739413e-07	2.65406709e-07
14.95           	4.25680610e-09	1.08965706e+00	3.68177153e-07	1.88345383e-07	1.79831770e-07
15              	4.33079784e-09	1.08906705e+00	2.86349324e-07	1.47505460e-07	1.38843864e-07
15.05           	4.30285803e-09	1.08862236e+00	3.63422474e-07	1.86014095e-07	1.77408379e-07
15.1            	4.34879770e-09	1.08808851e+00	2.63012500e-07	1.35855048e-07	1.27157453e-07
15.15           	4.43676008e-09	1.08753186e+00	4.26329595e-07	2.17601557e-07	2.08728037e-07
15.2            	4.51149864e-09	1.08699609e+00	3.93854469e-07	2.01438733e-07	1.92415736e-07
15.25           	4.60528973e-09	1.08649540e+00	4.16197015e-07	2.12703797e-07	2.03493218e-07
15.3            	4.69078983e-09	1.08598833e+00	3.84140410e-07	1.96760995e-07	1.87379415e-07
15.35           	4.76286527e-09	1.08541677e+00	3.89774710e-07	1.99650220e-07	1.90124490e-07
15.4            	4.83139711e-09	1.08488668e+00	3.90545907e-07	2.00104351e-07	1.90441556e-07
15.45           	4.92846855e-09	1.08429242e+00	4.05707424e-07	2.07782181e-07	1.97925244e-07
15.5            	4.96468048e-09	1.08381145e+00	4.40691106e-07	2.25310233e-07	2.15380872e-07