# Forces        
# CofR          : (0.00000000e+00 0.00000000e+00 0.00000000e+00)
# Time          forces(pressure viscous)	moments(pressure viscous)
0               	((0.00000000e+00 0.00000000e+00 0.00000000e+00) (2.09003290e+00 8.93382590e-17 4.81482486e-35)) ((0.00000000e+00 0.00000000e+00 0.00000000e+00) (1.80021049e-26 -1.29057203e-21 -3.13984949e-16))
0.05            	((6.46125561e+01 -3.17762309e-06 -4.37774952e-20) (2.14857105e+00 -1.11987236e-08 -5.72138913e-22)) ((5.84060481e-21 -2.78624769e-19 -8.45417486e-14) (-1.92096123e-19 -7.59837236e-22 -3.26450327e-09))
0.1             	((-2.84171023e+01 7.99788230e-06 3.33593526e-20) (1.67248330e+00 3.52753363e-08 -4.71898338e-22)) ((9.57487475e-20 1.18587597e-19 2.01349354e-14) (-4.14415764e-19 -6.17908255e-22 -1.00497095e-09))
0.15            	((1.38403844e+00 -4.69945803e-06 1.02634747e-20) (1.33762672e+00 1.95579136e-08 -3.68614654e-22)) ((5.24170282e-20 -6.94045941e-21 -2.80060805e-14) (-2.40635513e-19 -4.39233395e-22 -5.29520580e-09))
0.2             	((9.95667179e-01 1.60495863e-06 1.21029858e-20) (1.10845930e+00 2.17037282e-08 -2.43623544e-22)) ((5.08052077e-20 -4.71754749e-21 8.60331771e-14) (8.63623386e-20 -3.20878842e-22 -4.75896674e-09))
0.25            	((1.00229270e+00 -7.67588519e-07 1.22450683e-20) (9.47981442e-01 1.78493443e-08 -1.60001861e-22)) ((3.21753337e-20 -4.64037734e-21 -6.07568059e-14) (2.18130962e-19 -2.43267736e-22 -5.97398432e-09))
0.3             	((9.65695231e-01 6.48606024e-08 1.20624243e-20) (8.31406804e-01 1.57151269e-08 -1.35288910e-22)) ((2.35761746e-20 -4.50315389e-21 4.08429258e-14) (2.06919742e-19 -1.86330192e-22 -5.37115744e-09))
0.35            	((9.15439405e-01 9.36342103e-08 1.19497696e-20) (7.44286959e-01 1.37084537e-08 -1.45151323e-22)) ((2.21629193e-20 -4.32709803e-21 4.59893625e-14) (1.48128821e-19 -1.43110612e-22 -4.58267511e-09))
0.4             	((8.68742400e-01 -1.12915275e-07 1.18493306e-20) (6.77429034e-01 1.19594988e-08 -6.71322894e-23)) ((2.38136524e-20 -4.10500043e-21 -1.62653094e-14) (8.55333336e-20 -7.90398598e-23 -3.42635682e-09))
0.45            	((8.33720259e-01 -3.46617056e-08 1.17997297e-20) (6.24696268e-01 1.06590144e-08 -2.80415334e-23)) ((2.64362021e-20 -3.96409659e-21 -6.11324684e-15) (2.26583606e-20 -2.89352420e-23 -2.67581129e-09))
0.5             	((8.05745107e-01 4.95371168e-08 1.17324806e-20) (5.82650289e-01 1.03541101e-08 1.45816046e-24)) ((2.94155072e-20 -3.85191420e-21 -8.19735447e-15) (-4.35411197e-20 -1.42033973e-24 -2.51137199e-09))
0.55            	((7.86535315e-01 -8.66496927e-08 1.16742287e-20) (5.48651494e-01 8.84080598e-09 1.95002681e-24)) ((3.24221159e-20 -3.79325976e-21 1.70164989e-14) (-9.15322205e-20 1.02039207e-23 -2.01848181e-09))
0.6             	((7.74142266e-01 -4.65412648e-08 1.16222758e-20) (5.20811653e-01 7.50827122e-09 -6.83746805e-24)) ((3.61041340e-20 -3.76945415e-21 1.11690713e-14) (-1.17569022e-19 1.86869479e-23 -1.60420332e-09))
0.65            	((7.66786537e-01 -4.08684912e-08 1.15731769e-20) (4.97641769e-01 6.64025746e-09 -1.60137312e-23)) ((4.03005121e-20 -3.77098908e-21 9.63291946e-15) (-1.16005696e-19 2.77758925e-23 -1.20835516e-09))
0.7             	((7.63146207e-01 -2.22611404e-09 1.15189863e-20) (4.77796872e-01 6.41995990e-09 -2.00349068e-23)) ((4.48747984e-20 -3.78368503e-21 1.92097789e-14) (-1.11962458e-19 3.15321213e-23 -1.06654761e-09))
0.75            	((7.62874805e-01 -2.01161621e-07 1.14678786e-20) (4.60405038e-01 5.45204194e-09 -2.59687866e-23)) ((4.95452927e-20 -3.81168784e-21 3.22336016e-15) (-1.11645198e-19 3.70498236e-23 -1.07920775e-09))
0.8             	((7.64740262e-01 -9.01933138e-08 1.14168557e-20) (4.45081104e-01 4.82650317e-09 -3.23031746e-23)) ((5.41698843e-20 -3.84744151e-21 7.34162080e-15) (-1.12932260e-19 4.28745387e-23 -1.02972901e-09))
0.85            	((7.68910083e-01 -8.87683296e-08 1.13679947e-20) (4.31368760e-01 4.57507458e-09 -3.85262028e-23)) ((5.87991657e-20 -3.89360372e-21 6.89450599e-15) (-1.17713521e-19 4.84689014e-23 -9.47673953e-10))
0.9             	((7.73980952e-01 -1.48663651e-07 1.13212726e-20) (4.19186776e-01 4.11726257e-09 -4.48961431e-23)) ((6.35536995e-20 -3.94410245e-21 8.89493862e-15) (-1.20494370e-19 5.39995240e-23 -8.83571379e-10))
0.95            	((7.80352422e-01 -1.36051925e-07 1.12723184e-20) (4.08196903e-01 3.93178921e-09 -5.07608378e-23)) ((6.81228916e-20 -3.99614781e-21 7.06046007e-15) (-1.22161361e-19 5.90904187e-23 -9.68476311e-10))
1               	((7.88052971e-01 -1.52882370e-07 1.12238205e-20) (3.98339278e-01 3.87421305e-09 -5.63780669e-23)) ((7.26868441e-20 -4.05433845e-21 7.67634112e-15) (-1.23206035e-19 6.40758648e-23 -9.69600586e-10))
1.05            	((7.96156052e-01 -1.84053848e-07 1.11719836e-20) (3.89344596e-01 3.67541603e-09 -6.22239254e-23)) ((7.72167470e-20 -4.11202917e-21 8.42704270e-15) (-1.22919381e-19 6.93727582e-23 -1.01793050e-09))
1.1             	((8.05513861e-01 -1.67600469e-07 1.11201484e-20) (3.81106078e-01 3.62630125e-09 -6.70391581e-23)) ((8.17560260e-20 -4.17454894e-21 7.42418280e-15) (-1.19353206e-19 7.36424221e-23 -1.18900769e-09))
1.15            	((8.15033036e-01 1.87559288e-08 1.10636624e-20) (3.73612570e-01 4.91747450e-09 -6.99784575e-23)) ((8.61028835e-20 -4.23474822e-21 -1.68512123e-16) (-1.20005250e-19 7.68604172e-23 -1.40514462e-09))
1.2             	((8.25523018e-01 -9.73104787e-08 1.10119599e-20) (3.66687773e-01 4.97779322e-09 -7.35800913e-23)) ((9.03657330e-20 -4.30117021e-21 1.63253742e-15) (-1.20004646e-19 8.02910292e-23 -1.20947794e-09))
1.25            	((8.36256898e-01 -7.45609327e-08 1.09614210e-20) (3.60302205e-01 5.06510516e-09 -7.74412176e-23)) ((9.47095206e-20 -4.36769456e-21 1.27317861e-15) (-1.20681842e-19 8.36503993e-23 -1.01998172e-09))
1.3             	((8.47082129e-01 -8.22233930e-08 1.09088358e-20) (3.54340739e-01 5.10648572e-09 -8.13303153e-23)) ((9.90109694e-20 -4.43226099e-21 1.52381905e-15) (-1.22865537e-19 8.68925991e-23 -9.31417395e-10))
1.35            	((8.58328417e-01 -9.13111151e-08 1.08582622e-20) (3.48800534e-01 4.94818403e-09 -8.52965367e-23)) ((1.03283003e-19 -4.49904768e-21 1.58103782e-15) (-1.22788279e-19 9.01033076e-23 -9.37734636e-10))
1.4             	((8.69743077e-01 -8.81953660e-08 1.08075215e-20) (3.43675744e-01 4.93621372e-09 -8.92607418e-23)) ((1.07480828e-19 -4.56575751e-21 1.82812749e-15) (-1.19918996e-19 9.32161986e-23 -8.79671062e-10))
1.45            	((8.81708327e-01 -8.90289736e-08 1.07598337e-20) (3.38913420e-01 4.79638034e-09 -9.31954236e-23)) ((1.11570655e-19 -4.63478801e-21 1.15863265e-15) (-1.18606244e-19 9.61797085e-23 -7.98751070e-10))
1.5             	((8.92725324e-01 -1.13958275e-07 1.07039272e-20) (3.34478371e-01 4.34856087e-09 -9.70897355e-23)) ((1.15723857e-19 -4.69626873e-21 1.82400752e-15) (-1.18385704e-19 9.89727496e-23 -7.63995972e-10))
1.55            	((9.04354416e-01 -1.07871471e-07 1.06503494e-20) (3.30313121e-01 4.06121806e-09 -1.00824361e-22)) ((1.19787707e-19 -4.76232859e-21 1.47397285e-15) (-1.17929825e-19 1.01753137e-22 -6.33696184e-10))
1.6             	((9.15932741e-01 -1.04292426e-07 1.05927796e-20) (3.26425507e-01 3.87511631e-09 -1.02906865e-22)) ((1.23765501e-19 -4.82697025e-21 1.76405114e-15) (-1.17658333e-19 1.04396730e-22 -6.18665098e-10))
1.65            	((9.28069509e-01 -1.15450483e-07 1.05386774e-20) (3.22810214e-01 3.69874871e-09 -1.04596203e-22)) ((1.27713402e-19 -4.89560878e-21 1.63096533e-15) (-1.17755047e-19 1.06991541e-22 -5.26837083e-10))
1.7             	((9.38709340e-01 -1.27537552e-07 1.04719231e-20) (3.19395359e-01 3.46357857e-09 -1.05940582e-22)) ((1.31472324e-19 -4.95392483e-21 2.40795881e-15) (-1.17863985e-19 1.09522009e-22 -4.94370163e-10))
1.75            	((9.49954225e-01 -1.26389176e-07 1.04104914e-20) (3.16177303e-01 3.35238017e-09 -1.07001211e-22)) ((1.35216532e-19 -5.01569801e-21 2.33461254e-15) (-1.17513798e-19 1.11993557e-22 -3.94034718e-10))
1.8             	((9.61076979e-01 -1.27879603e-07 1.03492353e-20) (3.13172802e-01 3.34399942e-09 -1.07824436e-22)) ((1.38927379e-19 -5.07608271e-21 2.69044769e-15) (-1.19752724e-19 1.14408958e-22 -3.72462394e-10))
1.85            	((9.72022200e-01 -1.29607272e-07 1.02900701e-20) (3.10350563e-01 3.38713171e-09 -1.08792943e-22)) ((1.42486624e-19 -5.13652612e-21 3.05072807e-15) (-1.23017678e-19 1.16826744e-22 -3.33512822e-10))
1.9             	((9.82574366e-01 -1.44929823e-07 1.02315111e-20) (3.07702031e-01 3.39559422e-09 -1.10018112e-22)) ((1.45991800e-19 -5.19461046e-21 3.20089007e-15) (-1.26336929e-19 1.19189163e-22 -3.47250199e-10))
1.95            	((9.93157173e-01 -1.44517775e-07 1.01778716e-20) (3.05232714e-01 3.43735183e-09 -1.11627777e-22)) ((1.49466298e-19 -5.25259198e-21 4.53922924e-15) (-1.29145053e-19 1.21470412e-22 -2.90226159e-10))
2               	((1.00254342e+00 -1.42652622e-07 1.01180448e-20) (3.02891961e-01 3.46662059e-09 -1.13549972e-22)) ((1.52702308e-19 -5.30310464e-21 4.62564015e-15) (-1.28829833e-19 1.23697664e-22 -3.02927619e-10))
2.05            	((1.01239172e+00 -1.43316510e-07 1.00669676e-20) (3.00720850e-01 3.47424198e-09 -1.15691663e-22)) ((1.55920320e-19 -5.35756374e-21 4.93789037e-15) (-1.28121893e-19 1.25855920e-22 -3.61882135e-10))
2.1             	((1.02195257e+00 -1.59603877e-07 1.00170670e-20) (2.98674613e-01 3.38196456e-09 -1.17943045e-22)) ((1.59065834e-19 -5.40954083e-21 5.10507435e-15) (-1.27301972e-19 1.27939420e-22 -3.77993510e-10))
2.15            	((1.03101642e+00 -1.69964417e-07 9.96728595e-21) (2.96714733e-01 3.23831203e-09 -1.20263677e-22)) ((1.62089584e-19 -5.45956770e-21 5.92527329e-15) (-1.26341451e-19 1.29989998e-22 -3.53651232e-10))
2.2             	((1.03996042e+00 -1.66972245e-07 9.91902741e-21) (2.94844773e-01 3.17356501e-09 -1.22549093e-22)) ((1.65041045e-19 -5.50829905e-21 6.20423851e-15) (-1.25852151e-19 1.31959001e-22 -3.62664414e-10))
2.25            	((1.04861223e+00 -1.64510594e-07 9.87265643e-21) (2.93073789e-01 3.19399740e-09 -1.24817210e-22)) ((1.67903288e-19 -5.55610163e-21 6.48352899e-15) (-1.24810866e-19 1.33897121e-22 -3.47070445e-10))
2.3             	((1.05613613e+00 -1.94915525e-07 9.81986721e-21) (2.91384027e-01 2.99031625e-09 -1.27050125e-22)) ((1.70565241e-19 -5.59815832e-21 7.03625526e-15) (-1.22308915e-19 1.35802380e-22 -4.01137115e-10))
2.35            	((1.06384767e+00 -1.91562173e-07 9.77107108e-21) (2.89784536e-01 2.90463092e-09 -1.29165687e-22)) ((1.73171352e-19 -5.63989938e-21 7.07160025e-15) (-1.20096421e-19 1.37604147e-22 -4.02523058e-10))
2.4             	((1.07164942e+00 -1.96802901e-07 9.72607024e-21) (2.88271138e-01 2.82146657e-09 -1.31302367e-22)) ((1.75710635e-19 -5.68546933e-21 7.77654850e-15) (-1.17697001e-19 1.39442410e-22 -4.54011934e-10))
2.45            	((1.07871928e+00 -1.72790621e-07 9.67970299e-21) (2.86849074e-01 2.96002732e-09 -1.33289455e-22)) ((1.78015974e-19 -5.72374086e-21 7.30698054e-15) (-1.14890448e-19 1.41146603e-22 -4.65367852e-10))
2.5             	((1.08521487e+00 -1.94413200e-07 9.62944937e-21) (2.85494491e-01 2.98082081e-09 -1.35217155e-22)) ((1.80236654e-19 -5.76074880e-21 8.50654183e-15) (-1.12419741e-19 1.42807136e-22 -4.93241000e-10))
2.55            	((1.09166445e+00 -1.90176768e-07 9.58302636e-21) (2.84201784e-01 3.02124466e-09 -1.36963599e-22)) ((1.82359653e-19 -5.79688358e-21 8.12772159e-15) (-1.10659955e-19 1.44303285e-22 -5.40063931e-10))
2.6             	((1.09736020e+00 -1.95234386e-07 9.53468238e-21) (2.82974846e-01 3.10103053e-09 -1.38414071e-22)) ((1.84379005e-19 -5.83082437e-21 8.97209824e-15) (-1.08994376e-19 1.45728263e-22 -5.63547079e-10))
2.65            	((1.10227098e+00 -2.16658849e-07 9.48320212e-21) (2.81790826e-01 3.00502447e-09 -1.39477275e-22)) ((1.86231832e-19 -5.86124739e-21 9.48134800e-15) (-1.07489486e-19 1.47084320e-22 -5.48206348e-10))
2.7             	((1.10666378e+00 -2.24381783e-07 9.43364705e-21) (2.80654839e-01 2.86748145e-09 -1.40452832e-22)) ((1.87891174e-19 -5.88787169e-21 9.52341504e-15) (-1.07320042e-19 1.48354990e-22 -5.93697301e-10))
2.75            	((1.11127362e+00 -2.13277621e-07 9.38798876e-21) (2.79566502e-01 2.89182892e-09 -1.41417932e-22)) ((1.89523422e-19 -5.91822926e-21 9.18308398e-15) (-1.07183116e-19 1.49617920e-22 -6.18876799e-10))
2.8             	((1.11480065e+00 -2.16581411e-07 9.33495285e-21) (2.78544070e-01 2.92346383e-09 -1.42255093e-22)) ((1.90994880e-19 -5.94120475e-21 9.85279566e-15) (-1.07143587e-19 1.50752278e-22 -7.21872662e-10))
2.85            	((1.11844667e+00 -1.70169123e-07 9.28759312e-21) (2.77627346e-01 2.97936422e-09 -1.43077395e-22)) ((1.92366732e-19 -5.96634185e-21 9.45456820e-15) (-1.07359662e-19 1.51866317e-22 -6.96401518e-10))
2.9             	((1.12195569e+00 -2.02529559e-07 9.23943808e-21) (2.76789386e-01 2.73858424e-09 -1.43770983e-22)) ((1.93758904e-19 -5.98876217e-21 1.03973904e-14) (-1.07796268e-19 1.52848971e-22 -6.48975948e-10))
2.95            	((1.12538150e+00 -1.74081023e-07 9.19521384e-21) (2.75992088e-01 2.67937081e-09 -1.44472475e-22)) ((1.94998328e-19 -6.01330217e-21 1.04582142e-14) (-1.08140312e-19 1.53834452e-22 -5.92647299e-10))
3               	((1.12742350e+00 -1.98809579e-07 9.14214409e-21) (2.75196758e-01 2.44211761e-09 -1.45031895e-22)) ((1.96072216e-19 -6.02867883e-21 1.06748377e-14) (-1.08397054e-19 1.54678652e-22 -5.64597398e-10))
3.05            	((1.12974775e+00 -1.90451730e-07 9.09349737e-21) (2.74367510e-01 2.16556142e-09 -1.45520620e-22)) ((1.97088254e-19 -6.04573884e-21 1.16421629e-14) (-1.08485979e-19 1.55461692e-22 -5.31341509e-10))
3.1             	((1.13176986e+00 -1.94130506e-07 9.04915405e-21) (2.73529120e-01 2.01717379e-09 -1.45898279e-22)) ((1.97876045e-19 -6.06259638e-21 1.21841556e-14) (-1.08574027e-19 1.56224569e-22 -5.22353487e-10))
3.15            	((1.13324249e+00 -1.95675116e-07 9.00021437e-21) (2.72715042e-01 1.92026914e-09 -1.46044391e-22)) ((1.98550249e-19 -6.07611385e-21 1.24340642e-14) (-1.08487471e-19 1.56892276e-22 -5.14820147e-10))
3.2             	((1.13443980e+00 -2.08924432e-07 8.95187270e-21) (2.71934052e-01 1.76268618e-09 -1.46033522e-22)) ((1.99243692e-19 -6.08990826e-21 1.24240895e-14) (-1.08373110e-19 1.57537429e-22 -5.11213644e-10))
3.25            	((1.13544762e+00 -2.16307838e-07 8.90132496e-21) (2.71188840e-01 1.59657934e-09 -1.45790621e-22)) ((1.99951623e-19 -6.10200073e-21 1.21497864e-14) (-1.08192145e-19 1.58072648e-22 -5.16922836e-10))
3.3             	((1.13604195e+00 -2.19081481e-07 8.85205920e-21) (2.70471601e-01 1.45255256e-09 -1.45432233e-22)) ((2.00418893e-19 -6.11263556e-21 1.34972328e-14) (-1.08121858e-19 1.58597412e-22 -5.31318017e-10))
3.35            	((1.13688429e+00 -2.27654391e-07 8.80519839e-21) (2.69777960e-01 1.32029518e-09 -1.44994039e-22)) ((2.00918078e-19 -6.12292542e-21 1.36694042e-14) (-1.08067298e-19 1.58983033e-22 -5.14947892e-10))
3.4             	((1.13659074e+00 -2.06221821e-07 8.75038928e-21) (2.69095975e-01 1.37942312e-09 -1.44608219e-22)) ((2.01282799e-19 -6.12924585e-21 1.33576960e-14) (-1.07931143e-19 1.59358453e-22 -4.96069814e-10))
3.45            	((1.13644522e+00 -2.06207544e-07 8.70067192e-21) (2.68429154e-01 1.34037169e-09 -1.44100157e-22)) ((2.01646632e-19 -6.13618923e-21 1.32529621e-14) (-1.07514426e-19 1.59655862e-22 -5.57598426e-10))
3.5             	((1.13632321e+00 -2.40796418e-07 8.65081257e-21) (2.67778011e-01 1.22558137e-09 -1.43486874e-22)) ((2.01940699e-19 -6.14289807e-21 1.40536454e-14) (-1.07222414e-19 1.59876214e-22 -5.28096606e-10))
3.55            	((1.13526244e+00 -2.44165439e-07 8.60146719e-21) (2.67130700e-01 1.09217722e-09 -1.42820841e-22)) ((2.01985143e-19 -6.14367845e-21 1.42450071e-14) (-1.06902787e-19 1.60037808e-22 -5.10058881e-10))
3.6             	((1.13449098e+00 -2.32049047e-07 8.55306444e-21) (2.66470396e-01 1.06350180e-09 -1.42230017e-22)) ((2.02077634e-19 -6.14729601e-21 1.51455454e-14) (-1.06554678e-19 1.60129096e-22 -4.89290332e-10))
3.65            	((1.13367028e+00 -2.32384258e-07 8.50707111e-21) (2.65802195e-01 1.11148915e-09 -1.41265426e-22)) ((2.02144472e-19 -6.15102959e-21 1.51931419e-14) (-1.06060625e-19 1.60179521e-22 -4.65816986e-10))
3.7             	((1.13231008e+00 3.96044799e-07 8.45992903e-21) (2.65135753e-01 5.14758718e-09 -1.39562615e-22)) ((2.02095728e-19 -6.15110221e-21 9.60516389e-15) (-1.05325677e-19 1.60190911e-22 -3.20079076e-10))
3.75            	((1.13104275e+00 -9.59008722e-07 8.41471703e-21) (2.64473036e-01 1.46796143e-10 -1.38044073e-22)) ((2.02043913e-19 -6.15292286e-21 1.96927977e-14) (-1.04650279e-19 1.60176938e-22 -3.80264350e-10))
3.8             	((1.12990668e+00 -6.02306818e-08 8.37329277e-21) (2.63824960e-01 1.66735365e-10 -1.36675384e-22)) ((2.01975951e-19 -6.15544082e-21 1.45271165e-14) (-1.04241166e-19 1.60108718e-22 -3.35213118e-10))
3.85            	((1.12715830e+00 4.12597802e-07 8.32139507e-21) (2.63180265e-01 4.44678749e-09 -1.35364891e-22)) ((2.01719373e-19 -6.14587104e-21 1.06514190e-14) (-1.03899856e-19 1.59913077e-22 -2.11815149e-10))
3.9             	((1.12540752e+00 -9.71502945e-07 8.27560814e-21) (2.62542833e-01 -5.00311122e-10 -1.34247419e-22)) ((2.01600921e-19 -6.14588681e-21 1.98493565e-14) (-1.03583333e-19 1.59780385e-22 -2.46029513e-10))
3.95            	((1.12386887e+00 5.58598832e-07 8.23374816e-21) (2.61912768e-01 3.54968181e-09 -1.33195863e-22)) ((2.01472648e-19 -6.14634887e-21 1.01519270e-14) (-1.03240962e-19 1.59587424e-22 -3.91036387e-11))
4               	((1.12206698e+00 -3.39526690e-07 8.19224868e-21) (2.61290449e-01 2.76433235e-09 -1.32166980e-22)) ((2.01322124e-19 -6.14461496e-21 1.48996484e-14) (-1.02881890e-19 1.59325642e-22 3.96850608e-11))
4.05            	((1.12016474e+00 -1.36721557e-07 8.14942741e-21) (2.60679567e-01 2.12656520e-09 -1.31175853e-22)) ((2.01181019e-19 -6.14233862e-21 1.27662637e-14) (-1.02552598e-19 1.59029171e-22 1.22772325e-10))
4.1             	((1.11753448e+00 -1.28570312e-07 8.10516576e-21) (2.60074054e-01 1.70063806e-09 -1.30209363e-22)) ((2.00856319e-19 -6.13534053e-21 1.71939286e-14) (-1.02259779e-19 1.58689804e-22 1.64707359e-10))
4.15            	((1.11507002e+00 -1.32556025e-07 8.06215725e-21) (2.59475099e-01 1.40154657e-09 -1.29367676e-22)) ((2.00556514e-19 -6.13020889e-21 1.49842161e-14) (-1.02019040e-19 1.58351038e-22 1.55051543e-10))
4.2             	((1.11260953e+00 -1.43144593e-07 8.01981195e-21) (2.58884528e-01 1.08478257e-09 -1.28617718e-22)) ((2.00268682e-19 -6.12409668e-21 1.43990722e-14) (-1.01834956e-19 1.57955163e-22 1.41921457e-10))
4.25            	((1.11036685e+00 -1.44456330e-07 7.97872670e-21) (2.58303319e-01 7.58045309e-10 -1.27970368e-22)) ((2.00017250e-19 -6.11973204e-21 1.50269337e-14) (-1.01671779e-19 1.57548386e-22 1.35944847e-10))
4.3             	((1.10819379e+00 -1.52987807e-07 7.93773633e-21) (2.57731496e-01 4.05474375e-10 -1.27378202e-22)) ((1.99785338e-19 -6.11610053e-21 1.51764452e-14) (-1.01516962e-19 1.57119260e-22 1.27344649e-10))
4.35            	((1.10557513e+00 -1.48046702e-07 7.89803263e-21) (2.57165929e-01 8.95188090e-11 -1.26789446e-22)) ((1.99436359e-19 -6.10825972e-21 1.52920211e-14) (-1.01372020e-19 1.56643924e-22 1.29256999e-10))
4.4             	((1.10330785e+00 -1.22286393e-07 7.86002339e-21) (2.56607304e-01 6.75234226e-11 -1.26224247e-22)) ((1.99156939e-19 -6.10282926e-21 1.50991416e-14) (-1.01240637e-19 1.56160579e-22 2.04223614e-10))
4.45            	((1.10097303e+00 -1.10051941e-07 7.82176139e-21) (2.56054114e-01 1.52127764e-10 -1.25668083e-22)) ((1.98885471e-19 -6.09751041e-21 1.53337629e-14) (-1.01163183e-19 1.55665800e-22 2.92651649e-10))
4.5             	((1.09843197e+00 -1.65278171e-07 7.78285840e-21) (2.55504093e-01 -1.74883082e-10 -1.25125054e-22)) ((1.98563665e-19 -6.09208072e-21 1.60039083e-14) (-1.01104752e-19 1.55170788e-22 3.61235371e-10))
4.55            	((1.09555363e+00 -1.62421277e-07 7.74029379e-21) (2.54954337e-01 -5.92448061e-10 -1.24541771e-22)) ((1.98244359e-19 -6.08371273e-21 1.55302203e-14) (-1.01049273e-19 1.54626934e-22 4.21584340e-10))
4.6             	((1.09253070e+00 -1.43013220e-07 7.70042402e-21) (2.54403491e-01 -8.56311777e-10 -1.23935421e-22)) ((1.97865241e-19 -6.07285304e-21 1.55103794e-14) (-1.01005107e-19 1.54052998e-22 4.77876173e-10))
4.65            	((1.08999766e+00 -1.19837838e-07 7.66277859e-21) (2.53855436e-01 -8.82680646e-10 -1.23365925e-22)) ((1.97561215e-19 -6.06599123e-21 1.55249077e-14) (-1.00958755e-19 1.53509698e-22 5.26514245e-10))
4.7             	((1.08767013e+00 -1.50578721e-07 7.62796277e-21) (2.53313158e-01 -1.05522578e-09 -1.22779535e-22)) ((1.97261271e-19 -6.05957963e-21 1.61983057e-14) (-1.00913163e-19 1.52945588e-22 5.57297090e-10))
4.75            	((1.08483057e+00 -1.40609710e-07 7.58800010e-21) (2.52773488e-01 -1.17516651e-09 -1.22179659e-22)) ((1.96937447e-19 -6.05014045e-21 1.57023374e-14) (-1.00872895e-19 1.52364312e-22 5.82536243e-10))
4.8             	((1.08254670e+00 -1.58084633e-07 7.55190755e-21) (2.52239515e-01 -1.45989422e-09 -1.21614343e-22)) ((1.96668448e-19 -6.04483889e-21 1.57915131e-14) (-1.00810203e-19 1.51815813e-22 6.14246376e-10))
4.85            	((1.08011788e+00 -1.57727106e-07 7.51513269e-21) (2.51711257e-01 -1.79528974e-09 -1.21021054e-22)) ((1.96383327e-19 -6.03818505e-21 1.60493905e-14) (-1.00732945e-19 1.51236958e-22 6.40669918e-10))
4.9             	((1.07736495e+00 -1.53370685e-07 7.47828537e-21) (2.51185622e-01 -2.03942055e-09 -1.20404589e-22)) ((1.96057479e-19 -6.02851363e-21 1.60830550e-14) (-1.00659853e-19 1.50632611e-22 6.64319273e-10))
4.95            	((1.07487287e+00 -1.42869931e-07 7.44208549e-21) (2.50663356e-01 -2.16845364e-09 -1.19807994e-22)) ((1.95767161e-19 -6.02070284e-21 1.61181832e-14) (-1.00578467e-19 1.50045150e-22 6.91482996e-10))
5               	((1.07239890e+00 -1.46796410e-07 7.40623910e-21) (2.50144675e-01 -2.30947193e-09 -1.19216456e-22)) ((1.95479021e-19 -6.01292676e-21 1.70041390e-14) (-1.00498737e-19 1.49459664e-22 7.15565173e-10))
5.05            	((1.07005152e+00 -1.48669141e-07 7.37024243e-21) (2.49631363e-01 -2.46262489e-09 -1.18631109e-22)) ((1.95222096e-19 -6.00557301e-21 1.56023740e-14) (-1.00503153e-19 1.48876317e-22 7.21378794e-10))
5.1             	((1.06765516e+00 -1.47720843e-07 7.33483344e-21) (2.49122935e-01 -2.60257129e-09 -1.18042293e-22)) ((1.94955734e-19 -5.99772187e-21 1.61804706e-14) (-1.00519356e-19 1.48290221e-22 7.47820198e-10))
5.15            	((1.06545742e+00 -1.52485361e-07 7.30171027e-21) (2.48620198e-01 -2.72812866e-09 -1.17463623e-22)) ((1.94705460e-19 -5.99091910e-21 1.65642240e-14) (-1.00521628e-19 1.47713446e-22 7.88888968e-10))
5.2             	((1.06326242e+00 -1.35482603e-07 7.26740934e-21) (2.48122983e-01 -2.79574839e-09 -1.16894523e-22)) ((1.94468097e-19 -5.98437119e-21 1.63974194e-14) (-1.00509580e-19 1.47144946e-22 8.19170114e-10))
5.25            	((1.06124771e+00 -1.55890301e-07 7.23675779e-21) (2.47632691e-01 -3.03401968e-09 -1.16317880e-22)) ((1.94231786e-19 -5.97820584e-21 1.69139334e-14) (-1.00497508e-19 1.46568789e-22 7.89754675e-10))
5.3             	((1.05882389e+00 -1.23702669e-07 7.20140654e-21) (2.47146280e-01 -3.09171010e-09 -1.15738043e-22)) ((1.93973855e-19 -5.96972118e-21 1.61225200e-14) (-1.00489741e-19 1.45988745e-22 7.52110301e-10))
5.35            	((1.05663331e+00 -1.52307031e-07 7.16794235e-21) (2.46665020e-01 -3.30809797e-09 -1.15160849e-22)) ((1.93757619e-19 -5.96199828e-21 1.66268908e-14) (-1.00361348e-19 1.45414493e-22 7.42827530e-10))
5.4             	((1.05463830e+00 -1.36065945e-07 7.13514432e-21) (2.46188454e-01 -3.45982515e-09 -1.14615066e-22)) ((1.93564933e-19 -5.95596365e-21 1.64082615e-14) (-1.00222150e-19 1.44867852e-22 7.50151124e-10))
5.45            	((1.05246807e+00 -9.39670813e-07 7.10135852e-21) (2.45715139e-01 -9.24653940e-09 -1.14048381e-22)) ((1.93348326e-19 -5.94876153e-21 2.56620896e-14) (-1.00110591e-19 1.44320085e-22 5.36486144e-10))
5.5             	((1.04984938e+00 1.84914771e-08 7.06027334e-21) (2.45241173e-01 -8.05415493e-09 -1.13507218e-22)) ((1.93121260e-19 -5.93926787e-21 1.96624130e-14) (-1.00014968e-19 1.43770633e-22 3.35812253e-10))
5.55            	((1.04852968e+00 4.15965679e-07 7.04074013e-21) (2.44776534e-01 -2.43385708e-09 -1.12991385e-22)) ((1.92935573e-19 -5.93575339e-21 1.39492638e-14) (-9.99158565e-20 1.43229803e-22 2.83502036e-10))
5.6             	((1.04651916e+00 -1.09746426e-06 7.00952119e-21) (2.44317825e-01 -8.01520624e-09 -1.12438629e-22)) ((1.92734899e-19 -5.92888810e-21 2.61660268e-14) (-9.98223238e-20 1.42692283e-22 1.12475590e-10))
5.65            	((1.04454919e+00 -5.79686468e-08 6.97844618e-21) (2.43864119e-01 -7.47816037e-09 -1.11920582e-22)) ((1.92541862e-19 -5.92214226e-21 2.01747527e-14) (-9.97310658e-20 1.42162490e-22 8.33110664e-12))
5.7             	((1.04275595e+00 -2.79056195e-07 6.94963031e-21) (2.43416377e-01 -7.02655856e-09 -1.11405911e-22)) ((1.92362106e-19 -5.91623659e-21 2.15650794e-14) (-9.96400252e-20 1.41637690e-22 -1.43110076e-10))
5.75            	((1.04086057e+00 -2.40995921e-07 6.91799232e-21) (2.42973599e-01 -6.40960201e-09 -1.10902518e-22)) ((1.92191455e-19 -5.91004300e-21 2.10760229e-14) (-9.95505770e-20 1.41122420e-22 -2.49746446e-10))
5.8             	((1.03926735e+00 -2.61776933e-07 6.88962300e-21) (2.42537658e-01 -6.01628620e-09 -1.10409088e-22)) ((1.92044008e-19 -5.90554162e-21 2.06243985e-14) (-9.94589898e-20 1.40617017e-22 -3.15109374e-10))
5.85            	((1.03767866e+00 -2.63769848e-07 6.86277221e-21) (2.42109074e-01 -5.78320102e-09 -1.09910728e-22)) ((1.91886984e-19 -5.90064776e-21 2.11060553e-14) (-9.93644078e-20 1.40107004e-22 -3.66823152e-10))
5.9             	((1.03596793e+00 -2.35742994e-07 6.83732519e-21) (2.41687017e-01 -5.42532058e-09 -1.09412486e-22)) ((1.91691755e-19 -5.89445252e-21 2.08376881e-14) (-9.92692236e-20 1.39596372e-22 -4.00180181e-10))
5.95            	((1.03373533e+00 -2.16112133e-07 6.80237130e-21) (2.41266305e-01 -5.02771643e-09 -1.08917140e-22)) ((1.91504406e-19 -5.88589115e-21 2.01759182e-14) (-9.91799547e-20 1.39089035e-22 -4.03660171e-10))
6               	((1.03211897e+00 -2.95382141e-07 6.77428213e-21) (2.40850299e-01 -5.25428125e-09 -1.08443695e-22)) ((1.91362495e-19 -5.88076090e-21 2.01904736e-14) (-9.90870873e-20 1.38604530e-22 -3.96688613e-10))
6.05            	((1.03049169e+00 -2.30816428e-07 6.74598665e-21) (2.40439773e-01 -5.15012936e-09 -1.07977406e-22)) ((1.91225116e-19 -5.87552902e-21 2.03624552e-14) (-9.89897369e-20 1.38125435e-22 -3.91488206e-10))
6.1             	((1.02833313e+00 -1.91344897e-07 6.71120735e-21) (2.40031431e-01 -4.65091971e-09 -1.07513256e-22)) ((1.91041751e-19 -5.86731334e-21 1.98221973e-14) (-9.89016341e-20 1.37646185e-22 -3.26087525e-10))
6.15            	((1.02748718e+00 -3.81731589e-07 6.69632426e-21) (2.39633791e-01 -5.56296601e-09 -1.07068989e-22)) ((1.90924005e-19 -5.86572440e-21 2.18479206e-14) (-9.88025246e-20 1.37190490e-22 -3.23517867e-10))
6.2             	((1.02576580e+00 -1.10547664e-07 6.66693359e-21) (2.39242401e-01 -4.59558898e-09 -1.06626683e-22)) ((1.90779178e-19 -5.85993193e-21 1.94713223e-14) (-9.87220638e-20 1.36728938e-22 -2.40678930e-10))
6.25            	((1.02422390e+00 -2.94170859e-07 6.64108121e-21) (2.38856859e-01 -4.78663188e-09 -1.06181974e-22)) ((1.90636265e-19 -5.85482670e-21 2.04808501e-14) (-9.86387087e-20 1.36269927e-22 -2.08132274e-10))
6.3             	((1.02277682e+00 -2.39242766e-07 6.61638542e-21) (2.38477470e-01 -4.81752882e-09 -1.05747000e-22)) ((1.90502177e-19 -5.85028271e-21 2.04030586e-14) (-9.85512874e-20 1.35819608e-22 -1.69953204e-10))
6.35            	((1.02114950e+00 -1.98794323e-07 6.58891154e-21) (2.38102609e-01 -4.53655821e-09 -1.05313951e-22)) ((1.90362131e-19 -5.84479420e-21 1.96899924e-14) (-9.84681202e-20 1.35370162e-22 -1.25261277e-10))
6.4             	((1.01946709e+00 -2.32788822e-07 6.56157445e-21) (2.37731170e-01 -4.52052483e-09 -1.04880973e-22)) ((1.90223896e-19 -5.83887638e-21 1.97112529e-14) (-9.83934579e-20 1.34922039e-22 -9.01284863e-11))
6.45            	((1.01791468e+00 -2.29338694e-07 6.53472563e-21) (2.37363715e-01 -4.57668470e-09 -1.04458973e-22)) ((1.90092686e-19 -5.83377355e-21 2.03005913e-14) (-9.82974719e-20 1.34485601e-22 -8.68614885e-11))
6.5             	((1.01639966e+00 -2.43479521e-07 6.50835373e-21) (2.37000511e-01 -4.72901147e-09 -1.04040727e-22)) ((1.89958606e-19 -5.82877940e-21 2.03198482e-14) (-9.81902413e-20 1.34052854e-22 -7.61131991e-11))
6.55            	((1.01488152e+00 -2.51172816e-07 6.48235733e-21) (2.36641477e-01 -4.71335488e-09 -1.03624312e-22)) ((1.89821440e-19 -5.82364541e-21 2.09159336e-14) (-9.80841584e-20 1.33622026e-22 -1.33625135e-10))
6.6             	((1.01334195e+00 -2.59410498e-07 6.45694895e-21) (2.36286288e-01 -4.74726008e-09 -1.03212632e-22)) ((1.89687934e-19 -5.81843468e-21 2.07125780e-14) (-9.79788616e-20 1.33195956e-22 -2.06534807e-10))
6.65            	((1.01192036e+00 -2.55110338e-07 6.43129368e-21) (2.35935364e-01 -4.77886761e-09 -1.02805899e-22)) ((1.89574236e-19 -5.81384798e-21 2.06556370e-14) (-9.78746191e-20 1.32774631e-22 -2.73651105e-10))
6.7             	((1.01041570e+00 -2.39904945e-07 6.40497953e-21) (2.35588189e-01 -4.71656264e-09 -1.02403602e-22)) ((1.89444878e-19 -5.80879719e-21 2.03958554e-14) (-9.77723467e-20 1.32357213e-22 -3.25652521e-10))
6.75            	((1.00895034e+00 -2.42116548e-07 6.37934320e-21) (2.35245276e-01 -4.65449903e-09 -1.02006945e-22)) ((1.89317212e-19 -5.80397579e-21 1.99676159e-14) (-9.76870173e-20 1.31945161e-22 -3.66241325e-10))
6.8             	((1.00786142e+00 -2.76200488e-07 6.36038060e-21) (2.34908707e-01 -4.90682175e-09 -1.01612943e-22)) ((1.89201384e-19 -5.80089594e-21 2.09077682e-14) (-9.75814369e-20 1.31537568e-22 -4.18663406e-10))
6.85            	((1.00648513e+00 -1.82100921e-07 6.33614298e-21) (2.34576734e-01 -4.49775131e-09 -1.01221770e-22)) ((1.89081593e-19 -5.79649636e-21 1.93181923e-14) (-9.74803206e-20 1.31129894e-22 -4.39009398e-10))
6.9             	((1.00500952e+00 -2.13673833e-07 6.30996092e-21) (2.34247960e-01 -4.30294430e-09 -1.00830804e-22)) ((1.88959264e-19 -5.79161793e-21 1.88832646e-14) (-9.73824213e-20 1.30723696e-22 -4.49676723e-10))